 Entering Gaussian System, Link 0=g16
 Initial command:
 /Users/mizu-bai/Applications/g16/l1.exe "/Users/mizu-bai/Scratch/Gau-53049.inp" -scrdir="/Users/mizu-bai/Scratch/"
 Entering Link 1 = /Users/mizu-bai/Applications/g16/l1.exe PID=     53052.
  
 Copyright (c) 1988-2019, Gaussian, Inc.  All Rights Reserved.
  
 This is part of the Gaussian(R) 16 program.  It is based on
 the Gaussian(R) 09 system (copyright 2009, Gaussian, Inc.),
 the Gaussian(R) 03 system (copyright 2003, Gaussian, Inc.),
 the Gaussian(R) 98 system (copyright 1998, Gaussian, Inc.),
 the Gaussian(R) 94 system (copyright 1995, Gaussian, Inc.),
 the Gaussian 92(TM) system (copyright 1992, Gaussian, Inc.),
 the Gaussian 90(TM) system (copyright 1990, Gaussian, Inc.),
 the Gaussian 88(TM) system (copyright 1988, Gaussian, Inc.),
 the Gaussian 86(TM) system (copyright 1986, Carnegie Mellon
 University), and the Gaussian 82(TM) system (copyright 1983,
 Carnegie Mellon University). Gaussian is a federally registered
 trademark of Gaussian, Inc.
  
 This software contains proprietary and confidential information,
 including trade secrets, belonging to Gaussian, Inc.
  
 This software is provided under written license and may be
 used, copied, transmitted, or stored only in accord with that
 written license.
  
 The following legend is applicable only to US Government
 contracts under FAR:
  
                    RESTRICTED RIGHTS LEGEND
  
 Use, reproduction and disclosure by the US Government is
 subject to restrictions as set forth in subparagraphs (a)
 and (c) of the Commercial Computer Software - Restricted
 Rights clause in FAR 52.227-19.
  
 Gaussian, Inc.
 340 Quinnipiac St., Bldg. 40, Wallingford CT 06492
  
  
 ---------------------------------------------------------------
 Warning -- This program may not be used in any manner that
 competes with the business of Gaussian, Inc. or will provide
 assistance to any competitor of Gaussian, Inc.  The licensee
 of this program is prohibited from giving any competitor of
 Gaussian, Inc. access to this program.  By using this program,
 the user acknowledges that Gaussian, Inc. is engaged in the
 business of creating and licensing software in the field of
 computational chemistry and represents and warrants to the
 licensee that it is not a competitor of Gaussian, Inc. and that
 it will not use this program in any manner prohibited above.
 ---------------------------------------------------------------
  

 Cite this work as:
 Gaussian 16, Revision C.01,
 M. J. Frisch, G. W. Trucks, H. B. Schlegel, G. E. Scuseria, 
 M. A. Robb, J. R. Cheeseman, G. Scalmani, V. Barone, 
 G. A. Petersson, H. Nakatsuji, X. Li, M. Caricato, A. V. Marenich, 
 J. Bloino, B. G. Janesko, R. Gomperts, B. Mennucci, H. P. Hratchian, 
 J. V. Ortiz, A. F. Izmaylov, J. L. Sonnenberg, D. Williams-Young, 
 F. Ding, F. Lipparini, F. Egidi, J. Goings, B. Peng, A. Petrone, 
 T. Henderson, D. Ranasinghe, V. G. Zakrzewski, J. Gao, N. Rega, 
 G. Zheng, W. Liang, M. Hada, M. Ehara, K. Toyota, R. Fukuda, 
 J. Hasegawa, M. Ishida, T. Nakajima, Y. Honda, O. Kitao, H. Nakai, 
 T. Vreven, K. Throssell, J. A. Montgomery, Jr., J. E. Peralta, 
 F. Ogliaro, M. J. Bearpark, J. J. Heyd, E. N. Brothers, K. N. Kudin, 
 V. N. Staroverov, T. A. Keith, R. Kobayashi, J. Normand, 
 K. Raghavachari, A. P. Rendell, J. C. Burant, S. S. Iyengar, 
 J. Tomasi, M. Cossi, J. M. Millam, M. Klene, C. Adamo, R. Cammi, 
 J. W. Ochterski, R. L. Martin, K. Morokuma, O. Farkas, 
 J. B. Foresman, and D. J. Fox, Gaussian, Inc., Wallingford CT, 2019.
 
 ******************************************
 Gaussian 16:  EM64M-G16RevC.01  3-Jul-2019
                 4-Oct-2022 
 ******************************************
 %nproc=4
 Will use up to    4 processors via shared memory.
 %mem=4GB
 %chk=CH2.chk
 -----------------------------------
 #p b3lyp em=gd3bj def2tzvp opt freq
 -----------------------------------
 1/18=20,19=15,26=3,38=1/1,3;
 2/9=110,12=2,17=6,18=5,40=1/2;
 3/5=44,7=101,11=2,25=1,30=1,71=1,74=-5,124=41/1,2,3;
 4//1;
 5/5=2,38=5/2;
 6/7=2,8=2,9=2,10=2,28=1/1;
 7//1,2,3,16;
 1/18=20,19=15,26=3/3(2);
 2/9=110/2;
 99//99;
 2/9=110/2;
 3/5=44,7=101,11=2,25=1,30=1,71=1,74=-5,124=41/1,2,3;
 4/5=5,16=3,69=1/1;
 5/5=2,38=5/2;
 7//1,2,3,16;
 1/18=20,19=15,26=3/3(-5);
 2/9=110/2;
 6/7=2,8=2,9=2,10=2,19=2,28=1/1;
 99/9=1/99;
 Leave Link    1 at Tue Oct  4 21:36:02 2022, MaxMem=   536870912 cpu:               0.8 elap:               0.3
 (Enter /Users/mizu-bai/Applications/g16/l101.exe)
 -------------------
 Title Card Required
 -------------------
 Symbolic Z-matrix:
 Charge =  0 Multiplicity = 3
 C                     0.        0.        0.13375 
 H                     0.        0.92665  -0.40125 
 H                     0.       -0.92665  -0.40125 
 
 ITRead=  0  0  0
 MicOpt= -1 -1 -1
 NAtoms=      3 NQM=        3 NQMF=       0 NMMI=      0 NMMIF=      0
                NMic=       0 NMicF=      0.
                    Isotopes and Nuclear Properties:
 (Nuclear quadrupole moments (NQMom) in fm**2, nuclear magnetic moments (NMagM)
  in nuclear magnetons)

  Atom         1           2           3
 IAtWgt=          12           1           1
 AtmWgt=  12.0000000   1.0078250   1.0078250
 NucSpn=           0           1           1
 AtZEff=  -0.0000000  -0.0000000  -0.0000000
 NQMom=    0.0000000   0.0000000   0.0000000
 NMagM=    0.0000000   2.7928460   2.7928460
 AtZNuc=   6.0000000   1.0000000   1.0000000
 Leave Link  101 at Tue Oct  4 21:36:02 2022, MaxMem=   536870912 cpu:               1.4 elap:               0.4
 (Enter /Users/mizu-bai/Applications/g16/l103.exe)

 GradGradGradGradGradGradGradGradGradGradGradGradGradGradGradGradGradGrad
 Berny optimization.
 Initialization pass.
                           ----------------------------
                           !    Initial Parameters    !
                           ! (Angstroms and Degrees)  !
 --------------------------                            --------------------------
 ! Name  Definition              Value          Derivative Info.                !
 --------------------------------------------------------------------------------
 ! R1    R(1,2)                  1.07           estimate D2E/DX2                !
 ! R2    R(1,3)                  1.07           estimate D2E/DX2                !
 ! A1    A(2,1,3)              120.0            estimate D2E/DX2                !
 --------------------------------------------------------------------------------
 Trust Radius=3.00D-01 FncErr=1.00D-07 GrdErr=1.00D-06 EigMax=2.50D+02 EigMin=1.00D-04
 Number of steps in this run=     20 maximum allowed number of steps=    100.
 GradGradGradGradGradGradGradGradGradGradGradGradGradGradGradGradGradGrad

 Leave Link  103 at Tue Oct  4 21:36:03 2022, MaxMem=   536870912 cpu:               0.1 elap:               0.0
 (Enter /Users/mizu-bai/Applications/g16/l202.exe)
                          Input orientation:                          
 ---------------------------------------------------------------------
 Center     Atomic      Atomic             Coordinates (Angstroms)
 Number     Number       Type             X           Y           Z
 ---------------------------------------------------------------------
      1          6           0        0.000000    0.000000    0.133750
      2          1           0        0.000000    0.926647   -0.401250
      3          1           0        0.000000   -0.926647   -0.401250
 ---------------------------------------------------------------------
                    Distance matrix (angstroms):
                    1          2          3
     1  C    0.000000
     2  H    1.070000   0.000000
     3  H    1.070000   1.853294   0.000000
 Stoichiometry    CH2(3)
 Framework group  C2V[C2(C),SGV(H2)]
 Deg. of freedom     2
 Full point group                 C2V     NOp   4
 Largest Abelian subgroup         C2V     NOp   4
 Largest concise Abelian subgroup C2      NOp   2
                         Standard orientation:                         
 ---------------------------------------------------------------------
 Center     Atomic      Atomic             Coordinates (Angstroms)
 Number     Number       Type             X           Y           Z
 ---------------------------------------------------------------------
      1          6           0        0.000000   -0.000000    0.133750
      2          1           0        0.000000    0.926647   -0.401250
      3          1           0       -0.000000   -0.926647   -0.401250
 ---------------------------------------------------------------------
 Rotational constants (GHZ):        1023.1198172         291.9935404         227.1624541
 Leave Link  202 at Tue Oct  4 21:36:03 2022, MaxMem=   536870912 cpu:               0.0 elap:               0.0
 (Enter /Users/mizu-bai/Applications/g16/l301.exe)
 Standard basis: def2TZVP (5D, 7F)
 Ernie: Thresh=  0.10000D-02 Tol=  0.10000D-05 Strict=F.
 There are    22 symmetry adapted cartesian basis functions of A1  symmetry.
 There are     4 symmetry adapted cartesian basis functions of A2  symmetry.
 There are     9 symmetry adapted cartesian basis functions of B1  symmetry.
 There are    13 symmetry adapted cartesian basis functions of B2  symmetry.
 There are    19 symmetry adapted basis functions of A1  symmetry.
 There are     4 symmetry adapted basis functions of A2  symmetry.
 There are     8 symmetry adapted basis functions of B1  symmetry.
 There are    12 symmetry adapted basis functions of B2  symmetry.
    43 basis functions,    67 primitive gaussians,    48 cartesian basis functions
     5 alpha electrons        3 beta electrons
       nuclear repulsion energy         6.2202309789 Hartrees.
 IExCor=  402 DFT=T Ex+Corr=B3LYP ExCW=0 ScaHFX=  0.200000
 ScaDFX=  0.800000  0.720000  1.000000  0.810000 ScalE2=  1.000000  1.000000
 IRadAn=      5 IRanWt=     -1 IRanGd=            0 ICorTp=0 IEmpDi=141
 NAtoms=    3 NActive=    3 NUniq=    2 SFac= 2.25D+00 NAtFMM=   60 NAOKFM=F Big=F
 Integral buffers will be    131072 words long.
 Raffenetti 2 integral format.
 Two-electron integral symmetry is turned on.
 R6Disp:  Grimme-D3(BJ) Dispersion energy=       -0.0008390867 Hartrees.
 Nuclear repulsion after empirical dispersion term =        6.2193918922 Hartrees.
 Leave Link  301 at Tue Oct  4 21:36:03 2022, MaxMem=   536870912 cpu:               0.3 elap:               0.1
 (Enter /Users/mizu-bai/Applications/g16/l302.exe)
 NPDir=0 NMtPBC=     1 NCelOv=     1 NCel=       1 NClECP=     1 NCelD=      1
         NCelK=      1 NCelE2=     1 NClLst=     1 CellRange=     0.0.
 One-electron integrals computed using PRISM.
 One-electron integral symmetry used in STVInt
   4 Symmetry operations used in ECPInt.
 ECPInt:  NShTT=     190 NPrTT=     556 LenC2=     191 LenP2D=     541.
 LDataN:  DoStor=T MaxTD1= 6 Len=  172
 NBasis=    43 RedAO= T EigKep=  4.20D-03  NBF=    19     4     8    12
 NBsUse=    43 1.00D-06 EigRej= -1.00D+00 NBFU=    19     4     8    12
 Precomputing XC quadrature grid using
 IXCGrd= 4 IRadAn=           5 IRanWt=          -1 IRanGd=           0 AccXCQ= 0.00D+00.
 Generated NRdTot=       0 NPtTot=           0 NUsed=           0 NTot=          32
 NSgBfM=    48    48    48    48    48 MxSgAt=     3 MxSgA2=     3.
 Leave Link  302 at Tue Oct  4 21:36:03 2022, MaxMem=   536870912 cpu:               0.7 elap:               0.2
 (Enter /Users/mizu-bai/Applications/g16/l303.exe)
 DipDrv:  MaxL=1.
 Leave Link  303 at Tue Oct  4 21:36:03 2022, MaxMem=   536870912 cpu:               0.2 elap:               0.1
 (Enter /Users/mizu-bai/Applications/g16/l401.exe)
 ExpMin= 9.52D-02 ExpMax= 1.36D+04 ExpMxC= 4.63D+02 IAcc=3 IRadAn=         5 AccDes= 0.00D+00
 Harris functional with IExCor=  402 and IRadAn=       5 diagonalized for initial guess.
 HarFok:  IExCor=  402 AccDes= 0.00D+00 IRadAn=         5 IDoV= 1 UseB2=F ITyADJ=14
 ICtDFT=  3500011 ScaDFX=  1.000000  1.000000  1.000000  1.000000
 FoFCou: FMM=F IPFlag=           0 FMFlag=      100000 FMFlg1=           0
         NFxFlg=           0 DoJE=T BraDBF=F KetDBF=T FulRan=T
         wScrn=  0.000000 ICntrl=       500 IOpCl=  0 I1Cent=   200000004 NGrid=           0
         NMat0=    1 NMatS0=      1 NMatT0=    0 NMatD0=    1 NMtDS0=    0 NMtDT0=    0
 Petite list used in FoFCou.
 Harris En= -39.1091114265127    
 JPrj=0 DoOrth=F DoCkMO=F.
 Initial guess orbital symmetries:
 Alpha Orbitals:
       Occupied  (A1) (A1) (B2) (A1) (B1)
       Virtual   (A1) (B2) (A1) (B2) (A1) (B1) (A1) (B2) (A2) (A1)
                 (B1) (A1) (B2) (A1) (B1) (A1) (B2) (B2) (B1) (A2)
                 (A1) (B2) (A1) (B2) (A1) (B1) (A1) (A2) (A1) (B1)
                 (B1) (A2) (B2) (A1) (B2) (B2) (A1) (A1)
 Beta  Orbitals:
       Occupied  (A1) (A1) (B2)
       Virtual   (A1) (B1) (A1) (B2) (A1) (B2) (A1) (B1) (A1) (B2)
                 (A2) (A1) (B1) (A1) (B2) (A1) (B1) (A1) (B2) (B2)
                 (B1) (A2) (A1) (B2) (A1) (B2) (A1) (B1) (A1) (A2)
                 (A1) (B1) (B1) (A2) (B2) (A1) (B2) (B2) (A1) (A1)
 The electronic state of the initial guess is 3-B1.
 Initial guess <Sx>= 0.0000 <Sy>= 0.0000 <Sz>= 1.0000 <S**2>= 2.0000 S= 1.0000
 Leave Link  401 at Tue Oct  4 21:36:03 2022, MaxMem=   536870912 cpu:               1.0 elap:               0.3
 (Enter /Users/mizu-bai/Applications/g16/l502.exe)
 Keep R1 and R2 ints in memory in symmetry-blocked form, NReq=3942182.
 FoFCou: FMM=F IPFlag=           0 FMFlag=           0 FMFlg1=           0
         NFxFlg=           0 DoJE=F BraDBF=F KetDBF=F FulRan=T
         wScrn=  0.000000 ICntrl=       600 IOpCl=  0 I1Cent=           0 NGrid=           0
         NMat0=    1 NMatS0=    946 NMatT0=    0 NMatD0=    1 NMtDS0=    0 NMtDT0=    0
 Petite list used in FoFCou.
 UHF open shell SCF:
 Using DIIS extrapolation, IDIIS=  1040.
 NGot=   536870912 LenX=   536625077 LenY=   536622332
 Requested convergence on RMS density matrix=1.00D-08 within 128 cycles.
 Requested convergence on MAX density matrix=1.00D-06.
 Requested convergence on             energy=1.00D-06.
 No special actions if energy rises.
 Integral accuracy reduced to 1.0D-05 until final iterations.

 Cycle   1  Pass 0  IDiag  1:
 E= -39.1475228638148    
 DIIS: error= 3.04D-02 at cycle   1 NSaved=   1.
 NSaved= 1 IEnMin= 1 EnMin= -39.1475228638148     IErMin= 1 ErrMin= 3.04D-02
 ErrMax= 3.04D-02  0.00D+00 EMaxC= 1.00D-01 BMatC= 7.06D-02 BMatP= 7.06D-02
 IDIUse=3 WtCom= 6.96D-01 WtEn= 3.04D-01
 Coeff-Com:  0.100D+01
 Coeff-En:   0.100D+01
 Coeff:      0.100D+01
 Gap=     0.283 Goal=   None    Shift=    0.000
 Gap=     0.319 Goal=   None    Shift=    0.000
 GapD=    0.283 DampG=1.000 DampE=0.500 DampFc=0.5000 IDamp=-1.
 Damping current iteration by 5.00D-01
 RMSDP=3.53D-03 MaxDP=5.20D-02              OVMax= 9.89D-02

 Cycle   2  Pass 0  IDiag  1:
 E= -39.1570966456693     Delta-E=       -0.009573781854 Rises=F Damp=T
 DIIS: error= 7.39D-03 at cycle   2 NSaved=   2.
 NSaved= 2 IEnMin= 2 EnMin= -39.1570966456693     IErMin= 2 ErrMin= 7.39D-03
 ErrMax= 7.39D-03  0.00D+00 EMaxC= 1.00D-01 BMatC= 6.64D-03 BMatP= 7.06D-02
 IDIUse=3 WtCom= 9.26D-01 WtEn= 7.39D-02
 Coeff-Com: -0.176D+00 0.118D+01
 Coeff-En:   0.000D+00 0.100D+01
 Coeff:     -0.163D+00 0.116D+01
 Gap=     0.320 Goal=   None    Shift=    0.000
 Gap=     0.309 Goal=   None    Shift=    0.000
 RMSDP=9.46D-04 MaxDP=1.42D-02 DE=-9.57D-03 OVMax= 5.33D-02

 Cycle   3  Pass 0  IDiag  1:
 E= -39.1663333798582     Delta-E=       -0.009236734189 Rises=F Damp=F
 DIIS: error= 3.52D-03 at cycle   3 NSaved=   3.
 NSaved= 3 IEnMin= 3 EnMin= -39.1663333798582     IErMin= 3 ErrMin= 3.52D-03
 ErrMax= 3.52D-03  0.00D+00 EMaxC= 1.00D-01 BMatC= 7.88D-04 BMatP= 6.64D-03
 IDIUse=3 WtCom= 9.65D-01 WtEn= 3.52D-02
 Coeff-Com: -0.110D+00 0.237D+00 0.873D+00
 Coeff-En:   0.000D+00 0.000D+00 0.100D+01
 Coeff:     -0.106D+00 0.229D+00 0.877D+00
 Gap=     0.316 Goal=   None    Shift=    0.000
 Gap=     0.316 Goal=   None    Shift=    0.000
 RMSDP=2.55D-04 MaxDP=4.38D-03 DE=-9.24D-03 OVMax= 1.13D-02

 Cycle   4  Pass 0  IDiag  1:
 E= -39.1665791127309     Delta-E=       -0.000245732873 Rises=F Damp=F
 DIIS: error= 9.38D-04 at cycle   4 NSaved=   4.
 NSaved= 4 IEnMin= 4 EnMin= -39.1665791127309     IErMin= 4 ErrMin= 9.38D-04
 ErrMax= 9.38D-04  0.00D+00 EMaxC= 1.00D-01 BMatC= 3.67D-05 BMatP= 7.88D-04
 IDIUse=3 WtCom= 9.91D-01 WtEn= 9.38D-03
 Coeff-Com: -0.124D-01-0.138D-01 0.154D+00 0.872D+00
 Coeff-En:   0.000D+00 0.000D+00 0.000D+00 0.100D+01
 Coeff:     -0.123D-01-0.136D-01 0.153D+00 0.873D+00
 Gap=     0.317 Goal=   None    Shift=    0.000
 Gap=     0.315 Goal=   None    Shift=    0.000
 RMSDP=6.71D-05 MaxDP=7.67D-04 DE=-2.46D-04 OVMax= 2.10D-03

 Cycle   5  Pass 0  IDiag  1:
 E= -39.1665933713933     Delta-E=       -0.000014258662 Rises=F Damp=F
 DIIS: error= 1.81D-04 at cycle   5 NSaved=   5.
 NSaved= 5 IEnMin= 5 EnMin= -39.1665933713933     IErMin= 5 ErrMin= 1.81D-04
 ErrMax= 1.81D-04  0.00D+00 EMaxC= 1.00D-01 BMatC= 1.59D-06 BMatP= 3.67D-05
 IDIUse=3 WtCom= 9.98D-01 WtEn= 1.81D-03
 Coeff-Com:  0.675D-02-0.121D-01-0.673D-01-0.521D-01 0.112D+01
 Coeff-En:   0.000D+00 0.000D+00 0.000D+00 0.000D+00 0.100D+01
 Coeff:      0.674D-02-0.120D-01-0.671D-01-0.520D-01 0.112D+01
 Gap=     0.317 Goal=   None    Shift=    0.000
 Gap=     0.316 Goal=   None    Shift=    0.000
 RMSDP=2.21D-05 MaxDP=3.03D-04 DE=-1.43D-05 OVMax= 9.39D-04

 Cycle   6  Pass 0  IDiag  1:
 E= -39.1665944959869     Delta-E=       -0.000001124594 Rises=F Damp=F
 DIIS: error= 3.86D-05 at cycle   6 NSaved=   6.
 NSaved= 6 IEnMin= 6 EnMin= -39.1665944959869     IErMin= 6 ErrMin= 3.86D-05
 ErrMax= 3.86D-05  0.00D+00 EMaxC= 1.00D-01 BMatC= 6.44D-08 BMatP= 1.59D-06
 IDIUse=1 WtCom= 1.00D+00 WtEn= 0.00D+00
 Coeff-Com: -0.384D-03 0.283D-02 0.459D-02-0.379D-01-0.153D+00 0.118D+01
 Coeff:     -0.384D-03 0.283D-02 0.459D-02-0.379D-01-0.153D+00 0.118D+01
 Gap=     0.317 Goal=   None    Shift=    0.000
 Gap=     0.316 Goal=   None    Shift=    0.000
 RMSDP=4.72D-06 MaxDP=6.08D-05 DE=-1.12D-06 OVMax= 1.68D-04

 Initial convergence to 1.0D-05 achieved.  Increase integral accuracy.
 Cycle   7  Pass 1  IDiag  1:
 E= -39.1665946168341     Delta-E=       -0.000000120847 Rises=F Damp=F
 DIIS: error= 5.14D-06 at cycle   1 NSaved=   1.
 NSaved= 1 IEnMin= 1 EnMin= -39.1665946168341     IErMin= 1 ErrMin= 5.14D-06
 ErrMax= 5.14D-06  0.00D+00 EMaxC= 1.00D-01 BMatC= 1.48D-09 BMatP= 1.48D-09
 IDIUse=1 WtCom= 1.00D+00 WtEn= 0.00D+00
 Coeff-Com:  0.100D+01
 Coeff:      0.100D+01
 Gap=     0.317 Goal=   None    Shift=    0.000
 Gap=     0.316 Goal=   None    Shift=    0.000
 RMSDP=4.72D-06 MaxDP=6.08D-05 DE=-1.21D-07 OVMax= 1.84D-05

 Cycle   8  Pass 1  IDiag  1:
 E= -39.1665946174631     Delta-E=       -0.000000000629 Rises=F Damp=F
 DIIS: error= 2.96D-06 at cycle   2 NSaved=   2.
 NSaved= 2 IEnMin= 2 EnMin= -39.1665946174631     IErMin= 2 ErrMin= 2.96D-06
 ErrMax= 2.96D-06  0.00D+00 EMaxC= 1.00D-01 BMatC= 2.81D-10 BMatP= 1.48D-09
 IDIUse=1 WtCom= 1.00D+00 WtEn= 0.00D+00
 Coeff-Com:  0.128D+00 0.872D+00
 Coeff:      0.128D+00 0.872D+00
 Gap=     0.317 Goal=   None    Shift=    0.000
 Gap=     0.316 Goal=   None    Shift=    0.000
 RMSDP=2.57D-07 MaxDP=3.43D-06 DE=-6.29D-10 OVMax= 7.63D-06

 Cycle   9  Pass 1  IDiag  1:
 E= -39.1665946175428     Delta-E=       -0.000000000080 Rises=F Damp=F
 DIIS: error= 1.72D-06 at cycle   3 NSaved=   3.
 NSaved= 3 IEnMin= 3 EnMin= -39.1665946175428     IErMin= 3 ErrMin= 1.72D-06
 ErrMax= 1.72D-06  0.00D+00 EMaxC= 1.00D-01 BMatC= 1.08D-10 BMatP= 2.81D-10
 IDIUse=1 WtCom= 1.00D+00 WtEn= 0.00D+00
 Coeff-Com: -0.121D+00 0.364D+00 0.757D+00
 Coeff:     -0.121D+00 0.364D+00 0.757D+00
 Gap=     0.317 Goal=   None    Shift=    0.000
 Gap=     0.316 Goal=   None    Shift=    0.000
 RMSDP=1.11D-07 MaxDP=1.70D-06 DE=-7.98D-11 OVMax= 3.69D-06

 Cycle  10  Pass 1  IDiag  1:
 E= -39.1665946175785     Delta-E=       -0.000000000036 Rises=F Damp=F
 DIIS: error= 1.70D-07 at cycle   4 NSaved=   4.
 NSaved= 4 IEnMin= 4 EnMin= -39.1665946175785     IErMin= 4 ErrMin= 1.70D-07
 ErrMax= 1.70D-07  0.00D+00 EMaxC= 1.00D-01 BMatC= 1.54D-12 BMatP= 1.08D-10
 IDIUse=1 WtCom= 1.00D+00 WtEn= 0.00D+00
 Coeff-Com:  0.142D-02-0.842D-01-0.874D-01 0.117D+01
 Coeff:      0.142D-02-0.842D-01-0.874D-01 0.117D+01
 Gap=     0.317 Goal=   None    Shift=    0.000
 Gap=     0.316 Goal=   None    Shift=    0.000
 RMSDP=2.79D-08 MaxDP=3.35D-07 DE=-3.57D-11 OVMax= 7.50D-07

 Cycle  11  Pass 1  IDiag  1:
 E= -39.1665946175796     Delta-E=       -0.000000000001 Rises=F Damp=F
 DIIS: error= 2.98D-08 at cycle   5 NSaved=   5.
 NSaved= 5 IEnMin= 5 EnMin= -39.1665946175796     IErMin= 5 ErrMin= 2.98D-08
 ErrMax= 2.98D-08  0.00D+00 EMaxC= 1.00D-01 BMatC= 5.45D-14 BMatP= 1.54D-12
 IDIUse=1 WtCom= 1.00D+00 WtEn= 0.00D+00
 Coeff-Com:  0.314D-02-0.199D-01-0.319D-01 0.124D+00 0.924D+00
 Coeff:      0.314D-02-0.199D-01-0.319D-01 0.124D+00 0.924D+00
 Gap=     0.317 Goal=   None    Shift=    0.000
 Gap=     0.316 Goal=   None    Shift=    0.000
 RMSDP=3.54D-09 MaxDP=4.56D-08 DE=-1.12D-12 OVMax= 1.34D-07

 SCF Done:  E(UB3LYP) =  -39.1665946176     A.U. after   11 cycles
            NFock= 11  Conv=0.35D-08     -V/T= 2.0041
 <Sx>= 0.0000 <Sy>= 0.0000 <Sz>= 1.0000 <S**2>= 2.0042 S= 1.0014
 <L.S>= 0.000000000000E+00
 KE= 3.900625173318D+01 PE=-1.030851603634D+02 EE= 1.869292212046D+01
 Annihilation of the first spin contaminant:
 S**2 before annihilation     2.0042,   after     2.0000
 Leave Link  502 at Tue Oct  4 21:36:04 2022, MaxMem=   536870912 cpu:               2.7 elap:               0.7
 (Enter /Users/mizu-bai/Applications/g16/l601.exe)
 Copying SCF densities to generalized density rwf, IOpCl= 1 IROHF=0.

 **********************************************************************

            Population analysis using the SCF Density.

 **********************************************************************

 Orbital symmetries:
 Alpha Orbitals:
       Occupied  (A1) (A1) (B2) (A1) (B1)
       Virtual   (A1) (B2) (A1) (A1) (B2) (B1) (A1) (B2) (A2) (A1)
                 (B1) (A1) (B2) (A1) (B1) (A1) (B2) (B2) (B1) (A2)
                 (A1) (B2) (A1) (A1) (B2) (B1) (A1) (A2) (B1) (A1)
                 (B1) (A2) (B2) (A1) (B2) (B2) (A1) (A1)
 Beta  Orbitals:
       Occupied  (A1) (A1) (B2)
       Virtual   (A1) (B1) (A1) (B2) (B2) (A1) (A1) (B1) (A1) (B2)
                 (A2) (A1) (B1) (A1) (B2) (A1) (B1) (A1) (B2) (B2)
                 (B1) (A2) (A1) (B2) (A1) (B2) (A1) (B1) (A1) (A2)
                 (A1) (B1) (B1) (A2) (B2) (A1) (B2) (B2) (A1) (A1)
 The electronic state is 3-B1.
 Alpha  occ. eigenvalues --  -10.22013  -0.68870  -0.44662  -0.30512  -0.25092
 Alpha virt. eigenvalues --    0.06626   0.11711   0.20399   0.21248   0.21258
 Alpha virt. eigenvalues --    0.22079   0.44558   0.47540   0.60684   0.62132
 Alpha virt. eigenvalues --    0.63305   0.86067   0.90977   1.26724   1.36271
 Alpha virt. eigenvalues --    1.40118   1.50399   1.61512   1.78143   1.82434
 Alpha virt. eigenvalues --    1.95797   2.10980   2.15873   2.53414   2.53602
 Alpha virt. eigenvalues --    2.63162   2.70343   2.90040   2.90183   2.90867
 Alpha virt. eigenvalues --    3.13241   3.15061   3.18018   3.37857   3.41842
 Alpha virt. eigenvalues --    4.05070   4.31203  21.63607
  Beta  occ. eigenvalues --  -10.19078  -0.61616  -0.42449
  Beta virt. eigenvalues --   -0.10898  -0.06800   0.07765   0.12775   0.22000
  Beta virt. eigenvalues --    0.22398   0.26129   0.27717   0.47032   0.50298
  Beta virt. eigenvalues --    0.64784   0.69072   0.70992   0.89904   0.93650
  Beta virt. eigenvalues --    1.33342   1.44887   1.46939   1.52665   1.63305
  Beta virt. eigenvalues --    1.80626   1.84856   1.97678   2.13887   2.17845
  Beta virt. eigenvalues --    2.56321   2.57730   2.73272   2.80761   2.98657
  Beta virt. eigenvalues --    3.03392   3.04172   3.19698   3.20939   3.23291
  Beta virt. eigenvalues --    3.43756   3.47632   4.09364   4.35115  21.67144
          Condensed to atoms (all electrons):
               1          2          3
     1  C    5.546667   0.367183   0.367183
     2  H    0.367183   0.529244  -0.036944
     3  H    0.367183  -0.036944   0.529244
          Atomic-Atomic Spin Densities.
               1          2          3
     1  C    2.074097  -0.025737  -0.025737
     2  H   -0.025737   0.002372   0.012055
     3  H   -0.025737   0.012055   0.002372
 Mulliken charges and spin densities:
               1          2
     1  C   -0.281034   2.022622
     2  H    0.140517  -0.011311
     3  H    0.140517  -0.011311
 Sum of Mulliken charges =  -0.00000   2.00000
 Mulliken charges and spin densities with hydrogens summed into heavy atoms:
               1          2
     1  C   -0.000000   2.000000
 Electronic spatial extent (au):  <R**2>=             24.1273
 Charge=             -0.0000 electrons
 Dipole moment (field-independent basis, Debye):
    X=             -0.0000    Y=             -0.0000    Z=             -0.7166  Tot=              0.7166
 Quadrupole moment (field-independent basis, Debye-Ang):
   XX=             -8.2889   YY=             -6.3731   ZZ=             -7.4792
   XY=              0.0000   XZ=              0.0000   YZ=             -0.0000
 Traceless Quadrupole moment (field-independent basis, Debye-Ang):
   XX=             -0.9085   YY=              1.0073   ZZ=             -0.0988
   XY=              0.0000   XZ=              0.0000   YZ=             -0.0000
 Octapole moment (field-independent basis, Debye-Ang**2):
  XXX=              0.0000  YYY=             -0.0000  ZZZ=             -1.2746  XYY=             -0.0000
  XXY=              0.0000  XXZ=             -0.4326  XZZ=              0.0000  YZZ=              0.0000
  YYZ=             -1.1026  XYZ=             -0.0000
 Hexadecapole moment (field-independent basis, Debye-Ang**3):
 XXXX=            -10.7045 YYYY=            -14.0734 ZZZZ=            -11.3389 XXXY=             -0.0000
 XXXZ=             -0.0000 YYYX=             -0.0000 YYYZ=              0.0000 ZZZX=             -0.0000
 ZZZY=              0.0000 XXYY=             -4.5020 XXZZ=             -3.7037 YYZZ=             -4.1207
 XXYZ=             -0.0000 YYXZ=              0.0000 ZZXY=             -0.0000
 N-N= 6.219391892175D+00 E-N=-1.030851604483D+02  KE= 3.900625173318D+01
 Symmetry A1   KE= 3.579484606235D+01
 Symmetry A2   KE= 5.682656899705D-35
 Symmetry B1   KE= 1.173433249664D+00
 Symmetry B2   KE= 2.037972421166D+00
 Symmetry A1   SP= 1.000000000000D+00
 Symmetry A2   SP=-8.046326863288D-36
 Symmetry B1   SP= 1.000000000000D+00
 Symmetry B2   SP= 4.565263640212D-15
                          Isotropic Fermi Contact Couplings
        Atom                 a.u.       MegaHertz       Gauss      10(-4) cm-1
     1  C(13)              0.53572     301.12470     107.44878     100.44439
     2  H(1)               0.00300       6.70806       2.39360       2.23757
     3  H(1)               0.00300       6.70806       2.39360       2.23757
 --------------------------------------------------------
       Center         ----  Spin Dipole Couplings  ----
                      3XX-RR        3YY-RR        3ZZ-RR
 --------------------------------------------------------
     1   Atom        0.733040     -1.098386      0.365346
     2   Atom       -0.056216      0.095954     -0.039738
     3   Atom       -0.056216      0.095954     -0.039738
 --------------------------------------------------------
                        XY            XZ            YZ
 --------------------------------------------------------
     1   Atom        0.000000      0.000000     -0.000000
     2   Atom        0.000000      0.000000     -0.096797
     3   Atom       -0.000000     -0.000000      0.096797
 --------------------------------------------------------


 ---------------------------------------------------------------------------------
              Anisotropic Spin Dipole Couplings in Principal Axis System
 ---------------------------------------------------------------------------------

       Atom             a.u.   MegaHertz   Gauss  10(-4) cm-1        Axes

              Baa    -1.0984  -147.393   -52.593   -49.165 -0.0000  1.0000 -0.0000
     1 C(13)  Bbb     0.3653    49.026    17.494    16.353  0.0000  0.0000  1.0000
              Bcc     0.7330    98.367    35.100    32.812  1.0000  0.0000  0.0000
 
              Baa    -0.0901   -48.072   -17.153   -16.035 -0.0000  0.4615  0.8871
     2 H(1)   Bbb    -0.0562   -29.994   -10.703   -10.005  1.0000  0.0000  0.0000
              Bcc     0.1463    78.066    27.856    26.040 -0.0000  0.8871 -0.4615
 
              Baa    -0.0901   -48.072   -17.153   -16.035  0.0000 -0.4615  0.8871
     3 H(1)   Bbb    -0.0562   -29.994   -10.703   -10.005  1.0000  0.0000  0.0000
              Bcc     0.1463    78.066    27.856    26.040 -0.0000  0.8871  0.4615
 

 ---------------------------------------------------------------------------------

 No NMR shielding tensors so no spin-rotation constants.
 Leave Link  601 at Tue Oct  4 21:36:04 2022, MaxMem=   536870912 cpu:               1.1 elap:               0.3
 (Enter /Users/mizu-bai/Applications/g16/l701.exe)
 ... and contract with generalized density number  0.
 Compute integral first derivatives.
 R6Disp: Adding Grimme-D3(BJ) dispersion energy 1st derivatives to the gradient.
   4 Symmetry operations used in ECPInt.
 ECPInt:  NShTT=     190 NPrTT=     556 LenC2=     191 LenP2D=     541.
 LDataN:  DoStor=T MaxTD1= 7 Len=  274
 Leave Link  701 at Tue Oct  4 21:36:05 2022, MaxMem=   536870912 cpu:               0.7 elap:               0.2
 (Enter /Users/mizu-bai/Applications/g16/l702.exe)
 L702 exits ... SP integral derivatives will be done elsewhere.
 Leave Link  702 at Tue Oct  4 21:36:05 2022, MaxMem=   536870912 cpu:               0.2 elap:               0.0
 (Enter /Users/mizu-bai/Applications/g16/l703.exe)
 Integral derivatives from FoFJK, PRISM(SPDF).
 Compute integral first derivatives, UseDBF=F ICtDFT=           0.
 Calling FoFJK, ICntrl=      2127 FMM=F ISym2X=1 I1Cent= 0 IOpClX= 1 NMat=1 NMatS=1 NMatT=0.
 FoFJK:  IHMeth= 1 ICntrl=    2127 DoSepK=F KAlg= 0 I1Cent=           0 FoldK=F
 IRaf=         0 NMat=       1 IRICut=       1 DoRegI=T DoRafI=F ISym2E= 1 IDoP0=0 IntGTp=1.
 FoFCou: FMM=F IPFlag=           0 FMFlag=      100000 FMFlg1=         800
         NFxFlg=           0 DoJE=F BraDBF=F KetDBF=F FulRan=T
         wScrn=  0.000000 ICntrl=      2127 IOpCl=  1 I1Cent=           0 NGrid=           0
         NMat0=    1 NMatS0=      1 NMatT0=    0 NMatD0=    1 NMtDS0=    0 NMtDT0=    0
 Petite list used in FoFCou.
 Leave Link  703 at Tue Oct  4 21:36:05 2022, MaxMem=   536870912 cpu:               2.2 elap:               0.6
 (Enter /Users/mizu-bai/Applications/g16/l716.exe)
 Dipole        =-2.02801934D-17 0.00000000D+00-2.81949979D-01
 ***** Axes restored to original set *****
 -------------------------------------------------------------------
 Center     Atomic                   Forces (Hartrees/Bohr)
 Number     Number              X              Y              Z
 -------------------------------------------------------------------
      1        6          -0.000000000    0.000000000   -0.012869242
      2        1           0.000000000    0.015243360    0.006434621
      3        1           0.000000000   -0.015243360    0.006434621
 -------------------------------------------------------------------
 Cartesian Forces:  Max     0.015243360 RMS     0.008901599
 Leave Link  716 at Tue Oct  4 21:36:05 2022, MaxMem=   536870912 cpu:               0.2 elap:               0.1
 (Enter /Users/mizu-bai/Applications/g16/l103.exe)

 GradGradGradGradGradGradGradGradGradGradGradGradGradGradGradGradGradGrad
 Berny optimization.
 FormGI is forming the generalized inverse of G from B-inverse, IUseBI=4.
 Internal  Forces:  Max     0.026678815 RMS     0.017427112
 Search for a local minimum.
 Step number   1 out of a maximum of   20
 All quantities printed in internal units (Hartrees-Bohrs-Radians)
 RMS Force = .17427D-01 SwitMx=.10000D-02 MixMth= 1
 Mixed Optimization -- RFO/linear search
 Second derivative matrix not updated -- first step.
 The second derivative matrix:
                          R1        R2        A1
           R1           0.37230
           R2           0.00000   0.37230
           A1           0.00000   0.00000   0.16000
 ITU=  0
     Eigenvalues ---    0.16000   0.37230   0.37230
 RFO step:  Lambda=-4.84629377D-03 EMin= 1.60000000D-01
 Linear search not attempted -- first point.
 Iteration  1 RMS(Cart)=  0.10462353 RMS(Int)=  0.00549802
 Iteration  2 RMS(Cart)=  0.00453772 RMS(Int)=  0.00000510
 Iteration  3 RMS(Cart)=  0.00000549 RMS(Int)=  0.00000000
 Iteration  4 RMS(Cart)=  0.00000000 RMS(Int)=  0.00000000
 ITry= 1 IFail=0 DXMaxC= 9.99D-02 DCOld= 1.00D+10 DXMaxT= 3.00D-01 DXLimC= 3.00D+00 Rises=F
 ClnCor:  largest displacement from symmetrization is 9.93D-16 for atom     3.
 Variable       Old X    -DE/DX   Delta X   Delta X   Delta X     New X
                                 (Linear)    (Quad)   (Total)
    R1        2.02201   0.00998   0.00000   0.02647   0.02647   2.04848
    R2        2.02201   0.00998   0.00000   0.02647   0.02647   2.04848
    A1        2.09440   0.02668   0.00000   0.16184   0.16184   2.25624
         Item               Value     Threshold  Converged?
 Maximum Force            0.026679     0.000450     NO 
 RMS     Force            0.017427     0.000300     NO 
 Maximum Displacement     0.099912     0.001800     NO 
 RMS     Displacement     0.103035     0.001200     NO 
 Predicted change in Energy=-2.490012D-03
 Lowest energy point so far.  Saving SCF results.
 GradGradGradGradGradGradGradGradGradGradGradGradGradGradGradGradGradGrad

 Leave Link  103 at Tue Oct  4 21:36:05 2022, MaxMem=   536870912 cpu:               0.1 elap:               0.0
 (Enter /Users/mizu-bai/Applications/g16/l202.exe)
                          Input orientation:                          
 ---------------------------------------------------------------------
 Center     Atomic      Atomic             Coordinates (Angstroms)
 Number     Number       Type             X           Y           Z
 ---------------------------------------------------------------------
      1          6           0        0.000000    0.000000    0.086648
      2          1           0        0.000000    0.979518   -0.377699
      3          1           0       -0.000000   -0.979518   -0.377699
 ---------------------------------------------------------------------
                    Distance matrix (angstroms):
                    1          2          3
     1  C    0.000000
     2  H    1.084008   0.000000
     3  H    1.084008   1.959036   0.000000
 Stoichiometry    CH2(3)
 Framework group  C2V[C2(C),SGV(H2)]
 Deg. of freedom     2
 Full point group                 C2V     NOp   4
 RotChk:  IX=0 Diff= 3.49D-16
 Largest Abelian subgroup         C2V     NOp   4
 Largest concise Abelian subgroup C2      NOp   2
                         Standard orientation:                         
 ---------------------------------------------------------------------
 Center     Atomic      Atomic             Coordinates (Angstroms)
 Number     Number       Type             X           Y           Z
 ---------------------------------------------------------------------
      1          6           0        0.000000   -0.000000    0.116087
      2          1           0        0.000000    0.979518   -0.348260
      3          1           0       -0.000000   -0.979518   -0.348260
 ---------------------------------------------------------------------
 Rotational constants (GHZ):        1358.1518240         261.3226855         219.1549666
 Leave Link  202 at Tue Oct  4 21:36:06 2022, MaxMem=   536870912 cpu:               0.0 elap:               0.0
 (Enter /Users/mizu-bai/Applications/g16/l301.exe)
 Standard basis: def2TZVP (5D, 7F)
 Ernie: Thresh=  0.10000D-02 Tol=  0.10000D-05 Strict=F.
 There are    22 symmetry adapted cartesian basis functions of A1  symmetry.
 There are     4 symmetry adapted cartesian basis functions of A2  symmetry.
 There are     9 symmetry adapted cartesian basis functions of B1  symmetry.
 There are    13 symmetry adapted cartesian basis functions of B2  symmetry.
 There are    19 symmetry adapted basis functions of A1  symmetry.
 There are     4 symmetry adapted basis functions of A2  symmetry.
 There are     8 symmetry adapted basis functions of B1  symmetry.
 There are    12 symmetry adapted basis functions of B2  symmetry.
    43 basis functions,    67 primitive gaussians,    48 cartesian basis functions
     5 alpha electrons        3 beta electrons
       nuclear repulsion energy         6.1281263674 Hartrees.
 IExCor=  402 DFT=T Ex+Corr=B3LYP ExCW=0 ScaHFX=  0.200000
 ScaDFX=  0.800000  0.720000  1.000000  0.810000 ScalE2=  1.000000  1.000000
 IRadAn=      5 IRanWt=     -1 IRanGd=            0 ICorTp=0 IEmpDi=141
 NAtoms=    3 NActive=    3 NUniq=    2 SFac= 2.25D+00 NAtFMM=   60 NAOKFM=F Big=F
 Integral buffers will be    131072 words long.
 Raffenetti 2 integral format.
 Two-electron integral symmetry is turned on.
 R6Disp:  Grimme-D3(BJ) Dispersion energy=       -0.0008373273 Hartrees.
 Nuclear repulsion after empirical dispersion term =        6.1272890401 Hartrees.
 Leave Link  301 at Tue Oct  4 21:36:06 2022, MaxMem=   536870912 cpu:               0.2 elap:               0.0
 (Enter /Users/mizu-bai/Applications/g16/l302.exe)
 NPDir=0 NMtPBC=     1 NCelOv=     1 NCel=       1 NClECP=     1 NCelD=      1
         NCelK=      1 NCelE2=     1 NClLst=     1 CellRange=     0.0.
 One-electron integrals computed using PRISM.
 One-electron integral symmetry used in STVInt
   4 Symmetry operations used in ECPInt.
 ECPInt:  NShTT=     190 NPrTT=     556 LenC2=     191 LenP2D=     541.
 LDataN:  DoStor=T MaxTD1= 6 Len=  172
 NBasis=    43 RedAO= T EigKep=  4.60D-03  NBF=    19     4     8    12
 NBsUse=    43 1.00D-06 EigRej= -1.00D+00 NBFU=    19     4     8    12
 Precomputing XC quadrature grid using
 IXCGrd= 4 IRadAn=           5 IRanWt=          -1 IRanGd=           0 AccXCQ= 0.00D+00.
 Generated NRdTot=       0 NPtTot=           0 NUsed=           0 NTot=          32
 NSgBfM=    48    48    48    48    48 MxSgAt=     3 MxSgA2=     3.
 Leave Link  302 at Tue Oct  4 21:36:06 2022, MaxMem=   536870912 cpu:               0.6 elap:               0.2
 (Enter /Users/mizu-bai/Applications/g16/l303.exe)
 DipDrv:  MaxL=1.
 Leave Link  303 at Tue Oct  4 21:36:06 2022, MaxMem=   536870912 cpu:               0.2 elap:               0.0
 (Enter /Users/mizu-bai/Applications/g16/l401.exe)
 Initial guess from the checkpoint file:  "CH2.chk"
 B after Tr=    -0.000000    0.000000   -0.000000
         Rot=    1.000000   -0.000000   -0.000000   -0.000000 Ang=   0.00 deg.
 Guess basis will be translated and rotated to current coordinates.
 JPrj=2 DoOrth=T DoCkMO=T.
 Initial guess orbital symmetries:
 Alpha Orbitals:
       Occupied  (A1) (A1) (B2) (A1) (B1)
       Virtual   (A1) (B2) (A1) (A1) (B2) (B1) (A1) (B2) (A2) (A1)
                 (B1) (A1) (B2) (A1) (B1) (A1) (B2) (B2) (B1) (A2)
                 (A1) (B2) (A1) (A1) (B2) (B1) (A1) (A2) (B1) (A1)
                 (B1) (A2) (B2) (A1) (B2) (B2) (A1) (A1)
 Beta  Orbitals:
       Occupied  (A1) (A1) (B2)
       Virtual   (A1) (B1) (A1) (B2) (B2) (A1) (A1) (B1) (A1) (B2)
                 (A2) (A1) (B1) (A1) (B2) (A1) (B1) (A1) (B2) (B2)
                 (B1) (A2) (A1) (B2) (A1) (B2) (A1) (B1) (A1) (A2)
                 (A1) (B1) (B1) (A2) (B2) (A1) (B2) (B2) (A1) (A1)
 The electronic state of the initial guess is 3-B1.
 Initial guess <Sx>= 0.0000 <Sy>= 0.0000 <Sz>= 1.0000 <S**2>= 2.0045 S= 1.0015
 Generating alternative initial guess.
 ExpMin= 9.52D-02 ExpMax= 1.36D+04 ExpMxC= 4.63D+02 IAcc=3 IRadAn=         5 AccDes= 0.00D+00
 Harris functional with IExCor=  402 and IRadAn=       5 diagonalized for initial guess.
 HarFok:  IExCor=  402 AccDes= 0.00D+00 IRadAn=         5 IDoV= 1 UseB2=F ITyADJ=14
 ICtDFT=  3500011 ScaDFX=  1.000000  1.000000  1.000000  1.000000
 FoFCou: FMM=F IPFlag=           0 FMFlag=      100000 FMFlg1=           0
         NFxFlg=           0 DoJE=T BraDBF=F KetDBF=T FulRan=T
         wScrn=  0.000000 ICntrl=       500 IOpCl=  0 I1Cent=   200000004 NGrid=           0
         NMat0=    1 NMatS0=      1 NMatT0=    0 NMatD0=    1 NMtDS0=    0 NMtDT0=    0
 Petite list used in FoFCou.
 Harris En= -39.1108136050896    
 Leave Link  401 at Tue Oct  4 21:36:06 2022, MaxMem=   536870912 cpu:               1.0 elap:               0.3
 (Enter /Users/mizu-bai/Applications/g16/l502.exe)
 Keep R1 and R2 ints in memory in symmetry-blocked form, NReq=3942182.
 FoFCou: FMM=F IPFlag=           0 FMFlag=           0 FMFlg1=           0
         NFxFlg=           0 DoJE=F BraDBF=F KetDBF=F FulRan=T
         wScrn=  0.000000 ICntrl=       600 IOpCl=  0 I1Cent=           0 NGrid=           0
         NMat0=    1 NMatS0=    946 NMatT0=    0 NMatD0=    1 NMtDS0=    0 NMtDT0=    0
 Petite list used in FoFCou.
 UHF open shell SCF:
 Using DIIS extrapolation, IDIIS=  1040.
 NGot=   536870912 LenX=   536625077 LenY=   536622332
 Requested convergence on RMS density matrix=1.00D-08 within 128 cycles.
 Requested convergence on MAX density matrix=1.00D-06.
 Requested convergence on             energy=1.00D-06.
 No special actions if energy rises.
 Integral accuracy reduced to 1.0D-05 until final iterations.

 Cycle   1  Pass 0  IDiag  1:
 E= -39.1688351197515    
 DIIS: error= 4.82D-03 at cycle   1 NSaved=   1.
 NSaved= 1 IEnMin= 1 EnMin= -39.1688351197515     IErMin= 1 ErrMin= 4.82D-03
 ErrMax= 4.82D-03  0.00D+00 EMaxC= 1.00D-01 BMatC= 2.27D-03 BMatP= 2.27D-03
 IDIUse=3 WtCom= 9.52D-01 WtEn= 4.82D-02
 Coeff-Com:  0.100D+01
 Coeff-En:   0.100D+01
 Coeff:      0.100D+01
 Gap=     0.346 Goal=   None    Shift=    0.000
 Gap=     0.364 Goal=   None    Shift=    0.000
 GapD=    0.346 DampG=1.000 DampE=1.000 DampFc=1.0000 IDamp=-1.
 RMSDP=4.74D-04 MaxDP=5.35D-03              OVMax= 1.93D-02

 Cycle   2  Pass 0  IDiag  1:
 E= -39.1695449033494     Delta-E=       -0.000709783598 Rises=F Damp=F
 DIIS: error= 1.16D-03 at cycle   2 NSaved=   2.
 NSaved= 2 IEnMin= 2 EnMin= -39.1695449033494     IErMin= 2 ErrMin= 1.16D-03
 ErrMax= 1.16D-03  0.00D+00 EMaxC= 1.00D-01 BMatC= 8.74D-05 BMatP= 2.27D-03
 IDIUse=3 WtCom= 9.88D-01 WtEn= 1.16D-02
 Coeff-Com:  0.296D-01 0.970D+00
 Coeff-En:   0.000D+00 0.100D+01
 Coeff:      0.293D-01 0.971D+00
 Gap=     0.311 Goal=   None    Shift=    0.000
 Gap=     0.335 Goal=   None    Shift=    0.000
 RMSDP=1.34D-04 MaxDP=1.56D-03 DE=-7.10D-04 OVMax= 4.22D-03

 Cycle   3  Pass 0  IDiag  1:
 E= -39.1695734896141     Delta-E=       -0.000028586265 Rises=F Damp=F
 DIIS: error= 4.39D-04 at cycle   3 NSaved=   3.
 NSaved= 3 IEnMin= 3 EnMin= -39.1695734896141     IErMin= 3 ErrMin= 4.39D-04
 ErrMax= 4.39D-04  0.00D+00 EMaxC= 1.00D-01 BMatC= 1.59D-05 BMatP= 8.74D-05
 IDIUse=3 WtCom= 9.96D-01 WtEn= 4.39D-03
 Coeff-Com: -0.210D-01 0.244D+00 0.777D+00
 Coeff-En:   0.000D+00 0.000D+00 0.100D+01
 Coeff:     -0.209D-01 0.243D+00 0.778D+00
 Gap=     0.310 Goal=   None    Shift=    0.000
 Gap=     0.334 Goal=   None    Shift=    0.000
 RMSDP=4.33D-05 MaxDP=6.77D-04 DE=-2.86D-05 OVMax= 1.73D-03

 Cycle   4  Pass 0  IDiag  1:
 E= -39.1695786411298     Delta-E=       -0.000005151516 Rises=F Damp=F
 DIIS: error= 1.70D-04 at cycle   4 NSaved=   4.
 NSaved= 4 IEnMin= 4 EnMin= -39.1695786411298     IErMin= 4 ErrMin= 1.70D-04
 ErrMax= 1.70D-04  0.00D+00 EMaxC= 1.00D-01 BMatC= 2.00D-06 BMatP= 1.59D-05
 IDIUse=3 WtCom= 9.98D-01 WtEn= 1.70D-03
 Coeff-Com: -0.633D-02-0.114D-01 0.225D+00 0.793D+00
 Coeff-En:   0.000D+00 0.000D+00 0.000D+00 0.100D+01
 Coeff:     -0.632D-02-0.114D-01 0.225D+00 0.793D+00
 Gap=     0.311 Goal=   None    Shift=    0.000
 Gap=     0.334 Goal=   None    Shift=    0.000
 RMSDP=1.80D-05 MaxDP=2.17D-04 DE=-5.15D-06 OVMax= 5.53D-04

 Cycle   5  Pass 0  IDiag  1:
 E= -39.1695793203949     Delta-E=       -0.000000679265 Rises=F Damp=F
 DIIS: error= 5.45D-05 at cycle   5 NSaved=   5.
 NSaved= 5 IEnMin= 5 EnMin= -39.1695793203949     IErMin= 5 ErrMin= 5.45D-05
 ErrMax= 5.45D-05  0.00D+00 EMaxC= 1.00D-01 BMatC= 2.27D-07 BMatP= 2.00D-06
 IDIUse=1 WtCom= 1.00D+00 WtEn= 0.00D+00
 Coeff-Com:  0.206D-02-0.484D-01-0.632D-01 0.215D+00 0.894D+00
 Coeff:      0.206D-02-0.484D-01-0.632D-01 0.215D+00 0.894D+00
 Gap=     0.310 Goal=   None    Shift=    0.000
 Gap=     0.334 Goal=   None    Shift=    0.000
 RMSDP=6.13D-06 MaxDP=6.96D-05 DE=-6.79D-07 OVMax= 1.97D-04

 Initial convergence to 1.0D-05 achieved.  Increase integral accuracy.
 Cycle   6  Pass 1  IDiag  1:
 E= -39.1695786668905     Delta-E=        0.000000653504 Rises=F Damp=F
 DIIS: error= 3.60D-06 at cycle   1 NSaved=   1.
 NSaved= 1 IEnMin= 1 EnMin= -39.1695786668905     IErMin= 1 ErrMin= 3.60D-06
 ErrMax= 3.60D-06  0.00D+00 EMaxC= 1.00D-01 BMatC= 1.16D-09 BMatP= 1.16D-09
 IDIUse=1 WtCom= 1.00D+00 WtEn= 0.00D+00
 Coeff-Com:  0.100D+01
 Coeff:      0.100D+01
 Gap=     0.310 Goal=   None    Shift=    0.000
 Gap=     0.334 Goal=   None    Shift=    0.000
 RMSDP=6.13D-06 MaxDP=6.96D-05 DE= 6.54D-07 OVMax= 1.62D-05

 Cycle   7  Pass 1  IDiag  1:
 E= -39.1695786674104     Delta-E=       -0.000000000520 Rises=F Damp=F
 DIIS: error= 1.63D-06 at cycle   2 NSaved=   2.
 NSaved= 2 IEnMin= 2 EnMin= -39.1695786674104     IErMin= 2 ErrMin= 1.63D-06
 ErrMax= 1.63D-06  0.00D+00 EMaxC= 1.00D-01 BMatC= 1.34D-10 BMatP= 1.16D-09
 IDIUse=1 WtCom= 1.00D+00 WtEn= 0.00D+00
 Coeff-Com:  0.583D-01 0.942D+00
 Coeff:      0.583D-01 0.942D+00
 Gap=     0.310 Goal=   None    Shift=    0.000
 Gap=     0.334 Goal=   None    Shift=    0.000
 RMSDP=1.57D-07 MaxDP=2.02D-06 DE=-5.20D-10 OVMax= 4.84D-06

 Cycle   8  Pass 1  IDiag  1:
 E= -39.1695786674618     Delta-E=       -0.000000000051 Rises=F Damp=F
 DIIS: error= 8.19D-07 at cycle   3 NSaved=   3.
 NSaved= 3 IEnMin= 3 EnMin= -39.1695786674618     IErMin= 3 ErrMin= 8.19D-07
 ErrMax= 8.19D-07  0.00D+00 EMaxC= 1.00D-01 BMatC= 3.24D-11 BMatP= 1.34D-10
 IDIUse=1 WtCom= 1.00D+00 WtEn= 0.00D+00
 Coeff-Com: -0.813D-01 0.248D+00 0.833D+00
 Coeff:     -0.813D-01 0.248D+00 0.833D+00
 Gap=     0.310 Goal=   None    Shift=    0.000
 Gap=     0.334 Goal=   None    Shift=    0.000
 RMSDP=7.98D-08 MaxDP=1.28D-06 DE=-5.14D-11 OVMax= 2.58D-06

 Cycle   9  Pass 1  IDiag  1:
 E= -39.1695786674741     Delta-E=       -0.000000000012 Rises=F Damp=F
 DIIS: error= 3.71D-07 at cycle   4 NSaved=   4.
 NSaved= 4 IEnMin= 4 EnMin= -39.1695786674741     IErMin= 4 ErrMin= 3.71D-07
 ErrMax= 3.71D-07  0.00D+00 EMaxC= 1.00D-01 BMatC= 4.73D-12 BMatP= 3.24D-11
 IDIUse=1 WtCom= 1.00D+00 WtEn= 0.00D+00
 Coeff-Com: -0.309D-01-0.289D-01 0.269D+00 0.791D+00
 Coeff:     -0.309D-01-0.289D-01 0.269D+00 0.791D+00
 Gap=     0.310 Goal=   None    Shift=    0.000
 Gap=     0.334 Goal=   None    Shift=    0.000
 RMSDP=2.38D-08 MaxDP=3.31D-07 DE=-1.23D-11 OVMax= 8.02D-07

 Cycle  10  Pass 1  IDiag  1:
 E= -39.1695786674757     Delta-E=       -0.000000000002 Rises=F Damp=F
 DIIS: error= 6.57D-08 at cycle   5 NSaved=   5.
 NSaved= 5 IEnMin= 5 EnMin= -39.1695786674757     IErMin= 5 ErrMin= 6.57D-08
 ErrMax= 6.57D-08  0.00D+00 EMaxC= 1.00D-01 BMatC= 1.94D-13 BMatP= 4.73D-12
 IDIUse=1 WtCom= 1.00D+00 WtEn= 0.00D+00
 Coeff-Com:  0.470D-02-0.343D-01-0.502D-01 0.107D+00 0.973D+00
 Coeff:      0.470D-02-0.343D-01-0.502D-01 0.107D+00 0.973D+00
 Gap=     0.310 Goal=   None    Shift=    0.000
 Gap=     0.334 Goal=   None    Shift=    0.000
 RMSDP=8.45D-09 MaxDP=9.40D-08 DE=-1.63D-12 OVMax= 2.18D-07

 SCF Done:  E(UB3LYP) =  -39.1695786675     A.U. after   10 cycles
            NFock= 10  Conv=0.84D-08     -V/T= 2.0054
 <Sx>= 0.0000 <Sy>= 0.0000 <Sz>= 1.0000 <S**2>= 2.0049 S= 1.0016
 <L.S>= 0.000000000000E+00
 KE= 3.896031293527D+01 PE=-1.028788750835D+02 EE= 1.862169444069D+01
 Annihilation of the first spin contaminant:
 S**2 before annihilation     2.0049,   after     2.0000
 Leave Link  502 at Tue Oct  4 21:36:07 2022, MaxMem=   536870912 cpu:               2.2 elap:               0.6
 (Enter /Users/mizu-bai/Applications/g16/l701.exe)
 ... and contract with generalized density number  0.
 Compute integral first derivatives.
 R6Disp: Adding Grimme-D3(BJ) dispersion energy 1st derivatives to the gradient.
   4 Symmetry operations used in ECPInt.
 ECPInt:  NShTT=     190 NPrTT=     556 LenC2=     191 LenP2D=     541.
 LDataN:  DoStor=T MaxTD1= 7 Len=  274
 Leave Link  701 at Tue Oct  4 21:36:07 2022, MaxMem=   536870912 cpu:               0.6 elap:               0.2
 (Enter /Users/mizu-bai/Applications/g16/l702.exe)
 L702 exits ... SP integral derivatives will be done elsewhere.
 Leave Link  702 at Tue Oct  4 21:36:07 2022, MaxMem=   536870912 cpu:               0.1 elap:               0.0
 (Enter /Users/mizu-bai/Applications/g16/l703.exe)
 Integral derivatives from FoFJK, PRISM(SPDF).
 Compute integral first derivatives, UseDBF=F ICtDFT=           0.
 Calling FoFJK, ICntrl=      2127 FMM=F ISym2X=1 I1Cent= 0 IOpClX= 1 NMat=1 NMatS=1 NMatT=0.
 FoFJK:  IHMeth= 1 ICntrl=    2127 DoSepK=F KAlg= 0 I1Cent=           0 FoldK=F
 IRaf=         0 NMat=       1 IRICut=       1 DoRegI=T DoRafI=F ISym2E= 1 IDoP0=0 IntGTp=1.
 FoFCou: FMM=F IPFlag=           0 FMFlag=      100000 FMFlg1=         800
         NFxFlg=           0 DoJE=F BraDBF=F KetDBF=F FulRan=T
         wScrn=  0.000000 ICntrl=      2127 IOpCl=  1 I1Cent=           0 NGrid=           0
         NMat0=    1 NMatS0=      1 NMatT0=    0 NMatD0=    1 NMtDS0=    0 NMtDT0=    0
 Petite list used in FoFCou.
 Leave Link  703 at Tue Oct  4 21:36:07 2022, MaxMem=   536870912 cpu:               2.0 elap:               0.5
 (Enter /Users/mizu-bai/Applications/g16/l716.exe)
 Dipole        =-2.29271268D-17 0.00000000D+00-2.68930582D-01
 ***** Axes restored to original set *****
 -------------------------------------------------------------------
 Center     Atomic                   Forces (Hartrees/Bohr)
 Number     Number              X              Y              Z
 -------------------------------------------------------------------
      1        6          -0.000000000    0.000000000   -0.009480265
      2        1           0.000000000   -0.000396889    0.004740132
      3        1           0.000000000    0.000396889    0.004740132
 -------------------------------------------------------------------
 Cartesian Forces:  Max     0.009480265 RMS     0.003874821
 Leave Link  716 at Tue Oct  4 21:36:07 2022, MaxMem=   536870912 cpu:               0.1 elap:               0.0
 (Enter /Users/mizu-bai/Applications/g16/l103.exe)

 GradGradGradGradGradGradGradGradGradGradGradGradGradGradGradGradGradGrad
 Berny optimization.
 Using GEDIIS/GDIIS optimizer.
 FormGI is forming the generalized inverse of G from B-inverse, IUseBI=4.
 Internal  Forces:  Max     0.008425819 RMS     0.005241190
 Search for a local minimum.
 Step number   2 out of a maximum of   20
 All quantities printed in internal units (Hartrees-Bohrs-Radians)
 RMS Force = .52412D-02 SwitMx=.10000D-02 MixMth= 1
 Mixed Optimization -- RFO/linear search
 Update second derivatives using D2CorX and points    1    2
 DE= -2.98D-03 DEPred=-2.49D-03 R= 1.20D+00
 TightC=F SS=  1.41D+00  RLast= 1.66D-01 DXNew= 5.0454D-01 4.9834D-01
 Trust test= 1.20D+00 RLast= 1.66D-01 DXMaxT set to 4.98D-01
 The second derivative matrix:
                          R1        R2        A1
           R1           0.39411
           R2           0.02181   0.39411
           A1           0.00842   0.00842   0.11003
 ITU=  1  0
 Use linear search instead of GDIIS.
     Eigenvalues ---    0.10957   0.37230   0.41638
 RFO step:  Lambda=-3.02966910D-04 EMin= 1.09565893D-01
 Quartic linear search produced a step of  0.39392.
 Iteration  1 RMS(Cart)=  0.04739864 RMS(Int)=  0.00160907
 Iteration  2 RMS(Cart)=  0.00157324 RMS(Int)=  0.00000013
 Iteration  3 RMS(Cart)=  0.00000012 RMS(Int)=  0.00000000
 ITry= 1 IFail=0 DXMaxC= 5.63D-02 DCOld= 1.00D+10 DXMaxT= 4.98D-01 DXLimC= 3.00D+00 Rises=F
 ClnCor:  largest displacement from symmetrization is 3.63D-15 for atom     3.
 Variable       Old X    -DE/DX   Delta X   Delta X   Delta X     New X
                                 (Linear)    (Quad)   (Total)
    R1        2.04848  -0.00239   0.01043  -0.01750  -0.00708   2.04140
    R2        2.04848  -0.00239   0.01043  -0.01750  -0.00708   2.04140
    A1        2.25624   0.00843   0.06375   0.02368   0.08744   2.34367
         Item               Value     Threshold  Converged?
 Maximum Force            0.008426     0.000450     NO 
 RMS     Force            0.005241     0.000300     NO 
 Maximum Displacement     0.056322     0.001800     NO 
 RMS     Displacement     0.046782     0.001200     NO 
 Predicted change in Energy=-3.395392D-04
 Lowest energy point so far.  Saving SCF results.
 GradGradGradGradGradGradGradGradGradGradGradGradGradGradGradGradGradGrad

 Leave Link  103 at Tue Oct  4 21:36:07 2022, MaxMem=   536870912 cpu:               0.0 elap:               0.0
 (Enter /Users/mizu-bai/Applications/g16/l202.exe)
                          Input orientation:                          
 ---------------------------------------------------------------------
 Center     Atomic      Atomic             Coordinates (Angstroms)
 Number     Number       Type             X           Y           Z
 ---------------------------------------------------------------------
      1          6           0        0.000000   -0.000000    0.056844
      2          1           0        0.000000    0.995425   -0.362797
      3          1           0       -0.000000   -0.995425   -0.362797
 ---------------------------------------------------------------------
                    Distance matrix (angstroms):
                    1          2          3
     1  C    0.000000
     2  H    1.080264   0.000000
     3  H    1.080264   1.990851   0.000000
 Stoichiometry    CH2(3)
 Framework group  C2V[C2(C),SGV(H2)]
 Deg. of freedom     2
 Full point group                 C2V     NOp   4
 RotChk:  IX=0 Diff= 4.28D-16
 Largest Abelian subgroup         C2V     NOp   4
 Largest concise Abelian subgroup C2      NOp   2
                         Standard orientation:                         
 ---------------------------------------------------------------------
 Center     Atomic      Atomic             Coordinates (Angstroms)
 Number     Number       Type             X           Y           Z
 ---------------------------------------------------------------------
      1          6           0        0.000000    0.000000    0.104910
      2          1           0        0.000000    0.995425   -0.314730
      3          1           0       -0.000000   -0.995425   -0.314730
 ---------------------------------------------------------------------
 Rotational constants (GHZ):        1662.9505840         253.0373330         219.6196421
 Leave Link  202 at Tue Oct  4 21:36:07 2022, MaxMem=   536870912 cpu:               0.0 elap:               0.0
 (Enter /Users/mizu-bai/Applications/g16/l301.exe)
 Standard basis: def2TZVP (5D, 7F)
 Ernie: Thresh=  0.10000D-02 Tol=  0.10000D-05 Strict=F.
 There are    22 symmetry adapted cartesian basis functions of A1  symmetry.
 There are     4 symmetry adapted cartesian basis functions of A2  symmetry.
 There are     9 symmetry adapted cartesian basis functions of B1  symmetry.
 There are    13 symmetry adapted cartesian basis functions of B2  symmetry.
 There are    19 symmetry adapted basis functions of A1  symmetry.
 There are     4 symmetry adapted basis functions of A2  symmetry.
 There are     8 symmetry adapted basis functions of B1  symmetry.
 There are    12 symmetry adapted basis functions of B2  symmetry.
    43 basis functions,    67 primitive gaussians,    48 cartesian basis functions
     5 alpha electrons        3 beta electrons
       nuclear repulsion energy         6.1441154535 Hartrees.
 IExCor=  402 DFT=T Ex+Corr=B3LYP ExCW=0 ScaHFX=  0.200000
 ScaDFX=  0.800000  0.720000  1.000000  0.810000 ScalE2=  1.000000  1.000000
 IRadAn=      5 IRanWt=     -1 IRanGd=            0 ICorTp=0 IEmpDi=141
 NAtoms=    3 NActive=    3 NUniq=    2 SFac= 2.25D+00 NAtFMM=   60 NAOKFM=F Big=F
 Integral buffers will be    131072 words long.
 Raffenetti 2 integral format.
 Two-electron integral symmetry is turned on.
 R6Disp:  Grimme-D3(BJ) Dispersion energy=       -0.0008365968 Hartrees.
 Nuclear repulsion after empirical dispersion term =        6.1432788567 Hartrees.
 Leave Link  301 at Tue Oct  4 21:36:08 2022, MaxMem=   536870912 cpu:               0.2 elap:               0.1
 (Enter /Users/mizu-bai/Applications/g16/l302.exe)
 NPDir=0 NMtPBC=     1 NCelOv=     1 NCel=       1 NClECP=     1 NCelD=      1
         NCelK=      1 NCelE2=     1 NClLst=     1 CellRange=     0.0.
 One-electron integrals computed using PRISM.
 One-electron integral symmetry used in STVInt
   4 Symmetry operations used in ECPInt.
 ECPInt:  NShTT=     190 NPrTT=     556 LenC2=     191 LenP2D=     541.
 LDataN:  DoStor=T MaxTD1= 6 Len=  172
 NBasis=    43 RedAO= T EigKep=  4.59D-03  NBF=    19     4     8    12
 NBsUse=    43 1.00D-06 EigRej= -1.00D+00 NBFU=    19     4     8    12
 Precomputing XC quadrature grid using
 IXCGrd= 4 IRadAn=           5 IRanWt=          -1 IRanGd=           0 AccXCQ= 0.00D+00.
 Generated NRdTot=       0 NPtTot=           0 NUsed=           0 NTot=          32
 NSgBfM=    48    48    48    48    48 MxSgAt=     3 MxSgA2=     3.
 Leave Link  302 at Tue Oct  4 21:36:08 2022, MaxMem=   536870912 cpu:               0.6 elap:               0.2
 (Enter /Users/mizu-bai/Applications/g16/l303.exe)
 DipDrv:  MaxL=1.
 Leave Link  303 at Tue Oct  4 21:36:08 2022, MaxMem=   536870912 cpu:               0.2 elap:               0.0
 (Enter /Users/mizu-bai/Applications/g16/l401.exe)
 Initial guess from the checkpoint file:  "CH2.chk"
 B after Tr=    -0.000000    0.000000   -0.000000
         Rot=    1.000000    0.000000   -0.000000    0.000000 Ang=   0.00 deg.
 Guess basis will be translated and rotated to current coordinates.
 JPrj=2 DoOrth=T DoCkMO=T.
 Initial guess orbital symmetries:
 Alpha Orbitals:
       Occupied  (A1) (A1) (B2) (A1) (B1)
       Virtual   (A1) (B2) (A1) (A1) (B1) (B2) (A1) (B2) (A2) (A1)
                 (B1) (A1) (B2) (A1) (B1) (A1) (B2) (B2) (B1) (A2)
                 (A1) (B2) (A1) (A1) (B2) (B1) (A1) (A2) (B1) (A1)
                 (A2) (B2) (B1) (A1) (B2) (B2) (A1) (A1)
 Beta  Orbitals:
       Occupied  (A1) (A1) (B2)
       Virtual   (A1) (B1) (A1) (B2) (A1) (B2) (A1) (B1) (A1) (B2)
                 (A2) (A1) (B1) (B2) (A1) (A1) (B1) (A1) (B2) (B2)
                 (B1) (A2) (A1) (B2) (A1) (A1) (B2) (B1) (A1) (A2)
                 (A1) (B1) (A2) (B2) (B1) (A1) (B2) (B2) (A1) (A1)
 The electronic state of the initial guess is 3-B1.
 Initial guess <Sx>= 0.0000 <Sy>= 0.0000 <Sz>= 1.0000 <S**2>= 2.0050 S= 1.0017
 Generating alternative initial guess.
 ExpMin= 9.52D-02 ExpMax= 1.36D+04 ExpMxC= 4.63D+02 IAcc=3 IRadAn=         5 AccDes= 0.00D+00
 Harris functional with IExCor=  402 and IRadAn=       5 diagonalized for initial guess.
 HarFok:  IExCor=  402 AccDes= 0.00D+00 IRadAn=         5 IDoV= 1 UseB2=F ITyADJ=14
 ICtDFT=  3500011 ScaDFX=  1.000000  1.000000  1.000000  1.000000
 FoFCou: FMM=F IPFlag=           0 FMFlag=      100000 FMFlg1=           0
         NFxFlg=           0 DoJE=T BraDBF=F KetDBF=T FulRan=T
         wScrn=  0.000000 ICntrl=       500 IOpCl=  0 I1Cent=   200000004 NGrid=           0
         NMat0=    1 NMatS0=      1 NMatT0=    0 NMatD0=    1 NMtDS0=    0 NMtDT0=    0
 Petite list used in FoFCou.
 Harris En= -39.1118783072488    
 Leave Link  401 at Tue Oct  4 21:36:08 2022, MaxMem=   536870912 cpu:               1.1 elap:               0.3
 (Enter /Users/mizu-bai/Applications/g16/l502.exe)
 Keep R1 and R2 ints in memory in symmetry-blocked form, NReq=3942182.
 FoFCou: FMM=F IPFlag=           0 FMFlag=           0 FMFlg1=           0
         NFxFlg=           0 DoJE=F BraDBF=F KetDBF=F FulRan=T
         wScrn=  0.000000 ICntrl=       600 IOpCl=  0 I1Cent=           0 NGrid=           0
         NMat0=    1 NMatS0=    946 NMatT0=    0 NMatD0=    1 NMtDS0=    0 NMtDT0=    0
 Petite list used in FoFCou.
 UHF open shell SCF:
 Using DIIS extrapolation, IDIIS=  1040.
 NGot=   536870912 LenX=   536625077 LenY=   536622332
 Requested convergence on RMS density matrix=1.00D-08 within 128 cycles.
 Requested convergence on MAX density matrix=1.00D-06.
 Requested convergence on             energy=1.00D-06.
 No special actions if energy rises.
 Integral accuracy reduced to 1.0D-05 until final iterations.

 Cycle   1  Pass 0  IDiag  1:
 E= -39.1697723466336    
 DIIS: error= 2.70D-03 at cycle   1 NSaved=   1.
 NSaved= 1 IEnMin= 1 EnMin= -39.1697723466336     IErMin= 1 ErrMin= 2.70D-03
 ErrMax= 2.70D-03  0.00D+00 EMaxC= 1.00D-01 BMatC= 6.24D-04 BMatP= 6.24D-04
 IDIUse=3 WtCom= 9.73D-01 WtEn= 2.70D-02
 Coeff-Com:  0.100D+01
 Coeff-En:   0.100D+01
 Coeff:      0.100D+01
 Gap=     0.314 Goal=   None    Shift=    0.000
 Gap=     0.372 Goal=   None    Shift=    0.000
 GapD=    0.314 DampG=1.000 DampE=1.000 DampFc=1.0000 IDamp=-1.
 RMSDP=3.03D-04 MaxDP=3.82D-03              OVMax= 1.13D-02

 Cycle   2  Pass 0  IDiag  1:
 E= -39.1699947103475     Delta-E=       -0.000222363714 Rises=F Damp=F
 DIIS: error= 6.06D-04 at cycle   2 NSaved=   2.
 NSaved= 2 IEnMin= 2 EnMin= -39.1699947103475     IErMin= 2 ErrMin= 6.06D-04
 ErrMax= 6.06D-04  0.00D+00 EMaxC= 1.00D-01 BMatC= 1.70D-05 BMatP= 6.24D-04
 IDIUse=3 WtCom= 9.94D-01 WtEn= 6.06D-03
 Coeff-Com: -0.304D-01 0.103D+01
 Coeff-En:   0.000D+00 0.100D+01
 Coeff:     -0.302D-01 0.103D+01
 Gap=     0.308 Goal=   None    Shift=    0.000
 Gap=     0.346 Goal=   None    Shift=    0.000
 RMSDP=8.26D-05 MaxDP=1.26D-03 DE=-2.22D-04 OVMax= 3.07D-03

 Cycle   3  Pass 0  IDiag  1:
 E= -39.1700028413817     Delta-E=       -0.000008131034 Rises=F Damp=F
 DIIS: error= 2.44D-04 at cycle   3 NSaved=   3.
 NSaved= 3 IEnMin= 3 EnMin= -39.1700028413817     IErMin= 3 ErrMin= 2.44D-04
 ErrMax= 2.44D-04  0.00D+00 EMaxC= 1.00D-01 BMatC= 4.14D-06 BMatP= 1.70D-05
 IDIUse=3 WtCom= 9.98D-01 WtEn= 2.44D-03
 Coeff-Com: -0.269D-01 0.281D+00 0.746D+00
 Coeff-En:   0.000D+00 0.000D+00 0.100D+01
 Coeff:     -0.269D-01 0.280D+00 0.747D+00
 Gap=     0.309 Goal=   None    Shift=    0.000
 Gap=     0.346 Goal=   None    Shift=    0.000
 RMSDP=2.67D-05 MaxDP=3.07D-04 DE=-8.13D-06 OVMax= 8.24D-04

 Cycle   4  Pass 0  IDiag  1:
 E= -39.1700042260091     Delta-E=       -0.000001384627 Rises=F Damp=F
 DIIS: error= 1.05D-04 at cycle   4 NSaved=   4.
 NSaved= 4 IEnMin= 4 EnMin= -39.1700042260091     IErMin= 4 ErrMin= 1.05D-04
 ErrMax= 1.05D-04  0.00D+00 EMaxC= 1.00D-01 BMatC= 6.82D-07 BMatP= 4.14D-06
 IDIUse=3 WtCom= 9.99D-01 WtEn= 1.05D-03
 Coeff-Com: -0.248D-02-0.752D-01 0.217D+00 0.861D+00
 Coeff-En:   0.000D+00 0.000D+00 0.000D+00 0.100D+01
 Coeff:     -0.248D-02-0.751D-01 0.216D+00 0.861D+00
 Gap=     0.309 Goal=   None    Shift=    0.000
 Gap=     0.346 Goal=   None    Shift=    0.000
 RMSDP=1.04D-05 MaxDP=1.33D-04 DE=-1.38D-06 OVMax= 3.33D-04

 Cycle   5  Pass 0  IDiag  1:
 E= -39.1700044697790     Delta-E=       -0.000000243770 Rises=F Damp=F
 DIIS: error= 2.09D-05 at cycle   5 NSaved=   5.
 NSaved= 5 IEnMin= 5 EnMin= -39.1700044697790     IErMin= 5 ErrMin= 2.09D-05
 ErrMax= 2.09D-05  0.00D+00 EMaxC= 1.00D-01 BMatC= 3.77D-08 BMatP= 6.82D-07
 IDIUse=1 WtCom= 1.00D+00 WtEn= 0.00D+00
 Coeff-Com:  0.255D-02-0.529D-01-0.144D-01 0.208D+00 0.857D+00
 Coeff:      0.255D-02-0.529D-01-0.144D-01 0.208D+00 0.857D+00
 Gap=     0.309 Goal=   None    Shift=    0.000
 Gap=     0.346 Goal=   None    Shift=    0.000
 RMSDP=3.11D-06 MaxDP=3.19D-05 DE=-2.44D-07 OVMax= 1.03D-04

 Initial convergence to 1.0D-05 achieved.  Increase integral accuracy.
 Cycle   6  Pass 1  IDiag  1:
 E= -39.1700037258757     Delta-E=        0.000000743903 Rises=F Damp=F
 DIIS: error= 4.84D-06 at cycle   1 NSaved=   1.
 NSaved= 1 IEnMin= 1 EnMin= -39.1700037258757     IErMin= 1 ErrMin= 4.84D-06
 ErrMax= 4.84D-06  0.00D+00 EMaxC= 1.00D-01 BMatC= 8.94D-10 BMatP= 8.94D-10
 IDIUse=1 WtCom= 1.00D+00 WtEn= 0.00D+00
 Coeff-Com:  0.100D+01
 Coeff:      0.100D+01
 Gap=     0.309 Goal=   None    Shift=    0.000
 Gap=     0.346 Goal=   None    Shift=    0.000
 RMSDP=3.11D-06 MaxDP=3.19D-05 DE= 7.44D-07 OVMax= 1.43D-05

 Cycle   7  Pass 1  IDiag  1:
 E= -39.1700037261821     Delta-E=       -0.000000000306 Rises=F Damp=F
 DIIS: error= 2.25D-06 at cycle   2 NSaved=   2.
 NSaved= 2 IEnMin= 2 EnMin= -39.1700037261821     IErMin= 2 ErrMin= 2.25D-06
 ErrMax= 2.25D-06  0.00D+00 EMaxC= 1.00D-01 BMatC= 1.99D-10 BMatP= 8.94D-10
 IDIUse=1 WtCom= 1.00D+00 WtEn= 0.00D+00
 Coeff-Com:  0.219D+00 0.781D+00
 Coeff:      0.219D+00 0.781D+00
 Gap=     0.309 Goal=   None    Shift=    0.000
 Gap=     0.346 Goal=   None    Shift=    0.000
 RMSDP=1.84D-07 MaxDP=3.01D-06 DE=-3.06D-10 OVMax= 5.70D-06

 Cycle   8  Pass 1  IDiag  1:
 E= -39.1700037262373     Delta-E=       -0.000000000055 Rises=F Damp=F
 DIIS: error= 1.25D-06 at cycle   3 NSaved=   3.
 NSaved= 3 IEnMin= 3 EnMin= -39.1700037262373     IErMin= 3 ErrMin= 1.25D-06
 ErrMax= 1.25D-06  0.00D+00 EMaxC= 1.00D-01 BMatC= 4.75D-11 BMatP= 1.99D-10
 IDIUse=1 WtCom= 1.00D+00 WtEn= 0.00D+00
 Coeff-Com: -0.851D-01 0.269D+00 0.816D+00
 Coeff:     -0.851D-01 0.269D+00 0.816D+00
 Gap=     0.309 Goal=   None    Shift=    0.000
 Gap=     0.346 Goal=   None    Shift=    0.000
 RMSDP=7.22D-08 MaxDP=1.17D-06 DE=-5.53D-11 OVMax= 2.60D-06

 Cycle   9  Pass 1  IDiag  1:
 E= -39.1700037262534     Delta-E=       -0.000000000016 Rises=F Damp=F
 DIIS: error= 1.81D-07 at cycle   4 NSaved=   4.
 NSaved= 4 IEnMin= 4 EnMin= -39.1700037262534     IErMin= 4 ErrMin= 1.81D-07
 ErrMax= 1.81D-07  0.00D+00 EMaxC= 1.00D-01 BMatC= 1.70D-12 BMatP= 4.75D-11
 IDIUse=1 WtCom= 1.00D+00 WtEn= 0.00D+00
 Coeff-Com: -0.250D-01-0.264D-01 0.760D-01 0.975D+00
 Coeff:     -0.250D-01-0.264D-01 0.760D-01 0.975D+00
 Gap=     0.309 Goal=   None    Shift=    0.000
 Gap=     0.346 Goal=   None    Shift=    0.000
 RMSDP=2.10D-08 MaxDP=2.36D-07 DE=-1.61D-11 OVMax= 6.01D-07

 Cycle  10  Pass 1  IDiag  1:
 E= -39.1700037262543     Delta-E=       -0.000000000001 Rises=F Damp=F
 DIIS: error= 4.31D-08 at cycle   5 NSaved=   5.
 NSaved= 5 IEnMin= 5 EnMin= -39.1700037262543     IErMin= 5 ErrMin= 4.31D-08
 ErrMax= 4.31D-08  0.00D+00 EMaxC= 1.00D-01 BMatC= 1.35D-13 BMatP= 1.70D-12
 IDIUse=1 WtCom= 1.00D+00 WtEn= 0.00D+00
 Coeff-Com:  0.456D-02-0.281D-01-0.746D-01 0.124D+00 0.974D+00
 Coeff:      0.456D-02-0.281D-01-0.746D-01 0.124D+00 0.974D+00
 Gap=     0.309 Goal=   None    Shift=    0.000
 Gap=     0.346 Goal=   None    Shift=    0.000
 RMSDP=6.94D-09 MaxDP=6.85D-08 DE=-9.52D-13 OVMax= 1.77D-07

 SCF Done:  E(UB3LYP) =  -39.1700037263     A.U. after   10 cycles
            NFock= 10  Conv=0.69D-08     -V/T= 2.0053
 <Sx>= 0.0000 <Sy>= 0.0000 <Sz>= 1.0000 <S**2>= 2.0054 S= 1.0018
 <L.S>= 0.000000000000E+00
 KE= 3.896536807893D+01 PE=-1.029155916135D+02 EE= 1.863694095158D+01
 Annihilation of the first spin contaminant:
 S**2 before annihilation     2.0054,   after     2.0000
 Leave Link  502 at Tue Oct  4 21:36:09 2022, MaxMem=   536870912 cpu:               2.3 elap:               0.6
 (Enter /Users/mizu-bai/Applications/g16/l701.exe)
 ... and contract with generalized density number  0.
 Compute integral first derivatives.
 R6Disp: Adding Grimme-D3(BJ) dispersion energy 1st derivatives to the gradient.
   4 Symmetry operations used in ECPInt.
 ECPInt:  NShTT=     190 NPrTT=     556 LenC2=     191 LenP2D=     541.
 LDataN:  DoStor=T MaxTD1= 7 Len=  274
 Leave Link  701 at Tue Oct  4 21:36:09 2022, MaxMem=   536870912 cpu:               0.6 elap:               0.2
 (Enter /Users/mizu-bai/Applications/g16/l702.exe)
 L702 exits ... SP integral derivatives will be done elsewhere.
 Leave Link  702 at Tue Oct  4 21:36:09 2022, MaxMem=   536870912 cpu:               0.1 elap:               0.0
 (Enter /Users/mizu-bai/Applications/g16/l703.exe)
 Integral derivatives from FoFJK, PRISM(SPDF).
 Compute integral first derivatives, UseDBF=F ICtDFT=           0.
 Calling FoFJK, ICntrl=      2127 FMM=F ISym2X=1 I1Cent= 0 IOpClX= 1 NMat=1 NMatS=1 NMatT=0.
 FoFJK:  IHMeth= 1 ICntrl=    2127 DoSepK=F KAlg= 0 I1Cent=           0 FoldK=F
 IRaf=         0 NMat=       1 IRICut=       1 DoRegI=T DoRafI=F ISym2E= 1 IDoP0=0 IntGTp=1.
 FoFCou: FMM=F IPFlag=           0 FMFlag=      100000 FMFlg1=         800
         NFxFlg=           0 DoJE=F BraDBF=F KetDBF=F FulRan=T
         wScrn=  0.000000 ICntrl=      2127 IOpCl=  1 I1Cent=           0 NGrid=           0
         NMat0=    1 NMatS0=      1 NMatT0=    0 NMatD0=    1 NMtDS0=    0 NMtDT0=    0
 Petite list used in FoFCou.
 Leave Link  703 at Tue Oct  4 21:36:09 2022, MaxMem=   536870912 cpu:               2.0 elap:               0.5
 (Enter /Users/mizu-bai/Applications/g16/l716.exe)
 Dipole        =-2.40180934D-17 0.00000000D+00-2.58141522D-01
 ***** Axes restored to original set *****
 -------------------------------------------------------------------
 Center     Atomic                   Forces (Hartrees/Bohr)
 Number     Number              X              Y              Z
 -------------------------------------------------------------------
      1        6          -0.000000000    0.000000000   -0.001759884
      2        1           0.000000000   -0.000922857    0.000879942
      3        1           0.000000000    0.000922857    0.000879942
 -------------------------------------------------------------------
 Cartesian Forces:  Max     0.001759884 RMS     0.000839915
 Leave Link  716 at Tue Oct  4 21:36:09 2022, MaxMem=   536870912 cpu:               0.2 elap:               0.0
 (Enter /Users/mizu-bai/Applications/g16/l103.exe)

 GradGradGradGradGradGradGradGradGradGradGradGradGradGradGradGradGradGrad
 Berny optimization.
 Using GEDIIS/GDIIS optimizer.
 FormGI is forming the generalized inverse of G from B-inverse, IUseBI=4.
 Internal  Forces:  Max     0.001192204 RMS     0.001109863
 Search for a local minimum.
 Step number   3 out of a maximum of   20
 All quantities printed in internal units (Hartrees-Bohrs-Radians)
 RMS Force = .11099D-02 SwitMx=.10000D-02 MixMth= 1
 Mixed Optimization -- RFO/linear search
 Update second derivatives using D2CorX and points    1    2    3
 DE= -4.25D-04 DEPred=-3.40D-04 R= 1.25D+00
 TightC=F SS=  1.41D+00  RLast= 8.80D-02 DXNew= 8.3811D-01 2.6402D-01
 Trust test= 1.25D+00 RLast= 8.80D-02 DXMaxT set to 4.98D-01
 The second derivative matrix:
                          R1        R2        A1
           R1           0.39543
           R2           0.02313   0.39543
           A1           0.02018   0.02018   0.08907
 ITU=  1  1  0
 Use linear search instead of GDIIS.
     Eigenvalues ---    0.08662   0.37230   0.42101
 RFO step:  Lambda=-4.92524675D-06 EMin= 8.66177267D-02
 Quartic linear search produced a step of  0.15967.
 Iteration  1 RMS(Cart)=  0.00669852 RMS(Int)=  0.00003863
 Iteration  2 RMS(Cart)=  0.00004083 RMS(Int)=  0.00000000
 Iteration  3 RMS(Cart)=  0.00000000 RMS(Int)=  0.00000000
 ITry= 1 IFail=0 DXMaxC= 9.18D-03 DCOld= 1.00D+10 DXMaxT= 4.98D-01 DXLimC= 3.00D+00 Rises=F
 ClnCor:  largest displacement from symmetrization is 1.20D-15 for atom     3.
 Variable       Old X    -DE/DX   Delta X   Delta X   Delta X     New X
                                 (Linear)    (Quad)   (Total)
    R1        2.04140  -0.00119  -0.00113  -0.00238  -0.00351   2.03790
    R2        2.04140  -0.00119  -0.00113  -0.00238  -0.00351   2.03790
    A1        2.34367   0.00092   0.01396  -0.00076   0.01320   2.35687
         Item               Value     Threshold  Converged?
 Maximum Force            0.001192     0.000450     NO 
 RMS     Force            0.001110     0.000300     NO 
 Maximum Displacement     0.009183     0.001800     NO 
 RMS     Displacement     0.006687     0.001200     NO 
 Predicted change in Energy=-9.511872D-06
 Lowest energy point so far.  Saving SCF results.
 GradGradGradGradGradGradGradGradGradGradGradGradGradGradGradGradGradGrad

 Leave Link  103 at Tue Oct  4 21:36:09 2022, MaxMem=   536870912 cpu:               0.0 elap:               0.0
 (Enter /Users/mizu-bai/Applications/g16/l202.exe)
                          Input orientation:                          
 ---------------------------------------------------------------------
 Center     Atomic      Atomic             Coordinates (Angstroms)
 Number     Number       Type             X           Y           Z
 ---------------------------------------------------------------------
      1          6           0       -0.000000   -0.000000    0.051984
      2          1           0        0.000000    0.996459   -0.360367
      3          1           0       -0.000000   -0.996459   -0.360367
 ---------------------------------------------------------------------
                    Distance matrix (angstroms):
                    1          2          3
     1  C    0.000000
     2  H    1.078408   0.000000
     3  H    1.078408   1.992919   0.000000
 Stoichiometry    CH2(3)
 Framework group  C2V[C2(C),SGV(H2)]
 Deg. of freedom     2
 Full point group                 C2V     NOp   4
 RotChk:  IX=0 Diff= 4.45D-16
 Largest Abelian subgroup         C2V     NOp   4
 Largest concise Abelian subgroup C2      NOp   2
                         Standard orientation:                         
 ---------------------------------------------------------------------
 Center     Atomic      Atomic             Coordinates (Angstroms)
 Number     Number       Type             X           Y           Z
 ---------------------------------------------------------------------
      1          6           0       -0.000000   -0.000000    0.103088
      2          1           0       -0.000000    0.996459   -0.309263
      3          1           0       -0.000000   -0.996459   -0.309263
 ---------------------------------------------------------------------
 Rotational constants (GHZ):        1722.2655992         252.5125426         220.2240628
 Leave Link  202 at Tue Oct  4 21:36:09 2022, MaxMem=   536870912 cpu:               0.0 elap:               0.0
 (Enter /Users/mizu-bai/Applications/g16/l301.exe)
 Standard basis: def2TZVP (5D, 7F)
 Ernie: Thresh=  0.10000D-02 Tol=  0.10000D-05 Strict=F.
 There are    22 symmetry adapted cartesian basis functions of A1  symmetry.
 There are     4 symmetry adapted cartesian basis functions of A2  symmetry.
 There are     9 symmetry adapted cartesian basis functions of B1  symmetry.
 There are    13 symmetry adapted cartesian basis functions of B2  symmetry.
 There are    19 symmetry adapted basis functions of A1  symmetry.
 There are     4 symmetry adapted basis functions of A2  symmetry.
 There are     8 symmetry adapted basis functions of B1  symmetry.
 There are    12 symmetry adapted basis functions of B2  symmetry.
    43 basis functions,    67 primitive gaussians,    48 cartesian basis functions
     5 alpha electrons        3 beta electrons
       nuclear repulsion energy         6.1539541474 Hartrees.
 IExCor=  402 DFT=T Ex+Corr=B3LYP ExCW=0 ScaHFX=  0.200000
 ScaDFX=  0.800000  0.720000  1.000000  0.810000 ScalE2=  1.000000  1.000000
 IRadAn=      5 IRanWt=     -1 IRanGd=            0 ICorTp=0 IEmpDi=141
 NAtoms=    3 NActive=    3 NUniq=    2 SFac= 2.25D+00 NAtFMM=   60 NAOKFM=F Big=F
 Integral buffers will be    131072 words long.
 Raffenetti 2 integral format.
 Two-electron integral symmetry is turned on.
 R6Disp:  Grimme-D3(BJ) Dispersion energy=       -0.0008365292 Hartrees.
 Nuclear repulsion after empirical dispersion term =        6.1531176182 Hartrees.
 Leave Link  301 at Tue Oct  4 21:36:10 2022, MaxMem=   536870912 cpu:               0.2 elap:               0.1
 (Enter /Users/mizu-bai/Applications/g16/l302.exe)
 NPDir=0 NMtPBC=     1 NCelOv=     1 NCel=       1 NClECP=     1 NCelD=      1
         NCelK=      1 NCelE2=     1 NClLst=     1 CellRange=     0.0.
 One-electron integrals computed using PRISM.
 One-electron integral symmetry used in STVInt
   4 Symmetry operations used in ECPInt.
 ECPInt:  NShTT=     190 NPrTT=     556 LenC2=     191 LenP2D=     541.
 LDataN:  DoStor=T MaxTD1= 6 Len=  172
 NBasis=    43 RedAO= T EigKep=  4.56D-03  NBF=    19     4     8    12
 NBsUse=    43 1.00D-06 EigRej= -1.00D+00 NBFU=    19     4     8    12
 Precomputing XC quadrature grid using
 IXCGrd= 4 IRadAn=           5 IRanWt=          -1 IRanGd=           0 AccXCQ= 0.00D+00.
 Generated NRdTot=       0 NPtTot=           0 NUsed=           0 NTot=          32
 NSgBfM=    48    48    48    48    48 MxSgAt=     3 MxSgA2=     3.
 Leave Link  302 at Tue Oct  4 21:36:10 2022, MaxMem=   536870912 cpu:               0.6 elap:               0.2
 (Enter /Users/mizu-bai/Applications/g16/l303.exe)
 DipDrv:  MaxL=1.
 Leave Link  303 at Tue Oct  4 21:36:10 2022, MaxMem=   536870912 cpu:               0.2 elap:               0.0
 (Enter /Users/mizu-bai/Applications/g16/l401.exe)
 Initial guess from the checkpoint file:  "CH2.chk"
 B after Tr=    -0.000000   -0.000000    0.000000
         Rot=    1.000000   -0.000000   -0.000000   -0.000000 Ang=   0.00 deg.
 Guess basis will be translated and rotated to current coordinates.
 JPrj=2 DoOrth=T DoCkMO=T.
 Initial guess orbital symmetries:
 Alpha Orbitals:
       Occupied  (A1) (A1) (B2) (A1) (B1)
       Virtual   (A1) (B2) (A1) (A1) (B1) (B2) (A1) (B2) (A2) (A1)
                 (B1) (B2) (A1) (A1) (B1) (A1) (B2) (B1) (B2) (A2)
                 (A1) (B2) (A1) (A1) (B2) (B1) (A1) (A2) (B1) (A1)
                 (A2) (B2) (B1) (A1) (B2) (B2) (A1) (A1)
 Beta  Orbitals:
       Occupied  (A1) (A1) (B2)
       Virtual   (A1) (B1) (A1) (B2) (A1) (B2) (A1) (B1) (A1) (B2)
                 (A2) (A1) (B1) (B2) (A1) (A1) (B1) (A1) (B2) (B1)
                 (B2) (A1) (A2) (B2) (A1) (A1) (B2) (B1) (A1) (A2)
                 (A1) (B1) (A2) (B2) (B1) (A1) (B2) (B2) (A1) (A1)
 The electronic state of the initial guess is 3-B1.
 Initial guess <Sx>= 0.0000 <Sy>= 0.0000 <Sz>= 1.0000 <S**2>= 2.0054 S= 1.0018
 Leave Link  401 at Tue Oct  4 21:36:10 2022, MaxMem=   536870912 cpu:               0.3 elap:               0.1
 (Enter /Users/mizu-bai/Applications/g16/l502.exe)
 Keep R1 and R2 ints in memory in symmetry-blocked form, NReq=3942182.
 FoFCou: FMM=F IPFlag=           0 FMFlag=           0 FMFlg1=           0
         NFxFlg=           0 DoJE=F BraDBF=F KetDBF=F FulRan=T
         wScrn=  0.000000 ICntrl=       600 IOpCl=  0 I1Cent=           0 NGrid=           0
         NMat0=    1 NMatS0=    946 NMatT0=    0 NMatD0=    1 NMtDS0=    0 NMtDT0=    0
 Petite list used in FoFCou.
 UHF open shell SCF:
 Using DIIS extrapolation, IDIIS=  1040.
 NGot=   536870912 LenX=   536625077 LenY=   536622332
 Requested convergence on RMS density matrix=1.00D-08 within 128 cycles.
 Requested convergence on MAX density matrix=1.00D-06.
 Requested convergence on             energy=1.00D-06.
 No special actions if energy rises.

 Cycle   1  Pass 1  IDiag  1:
 E= -39.1700074159641    
 DIIS: error= 4.53D-04 at cycle   1 NSaved=   1.
 NSaved= 1 IEnMin= 1 EnMin= -39.1700074159641     IErMin= 1 ErrMin= 4.53D-04
 ErrMax= 4.53D-04  0.00D+00 EMaxC= 1.00D-01 BMatC= 1.87D-05 BMatP= 1.87D-05
 IDIUse=3 WtCom= 9.95D-01 WtEn= 4.53D-03
 Coeff-Com:  0.100D+01
 Coeff-En:   0.100D+01
 Coeff:      0.100D+01
 Gap=     0.309 Goal=   None    Shift=    0.000
 Gap=     0.350 Goal=   None    Shift=    0.000
 RMSDP=5.63D-05 MaxDP=8.16D-04              OVMax= 1.92D-03

 Cycle   2  Pass 1  IDiag  1:
 E= -39.1700138418062     Delta-E=       -0.000006425842 Rises=F Damp=F
 DIIS: error= 1.11D-04 at cycle   2 NSaved=   2.
 NSaved= 2 IEnMin= 2 EnMin= -39.1700138418062     IErMin= 2 ErrMin= 1.11D-04
 ErrMax= 1.11D-04  0.00D+00 EMaxC= 1.00D-01 BMatC= 8.38D-07 BMatP= 1.87D-05
 IDIUse=3 WtCom= 9.99D-01 WtEn= 1.11D-03
 Coeff-Com:  0.111D-01 0.989D+00
 Coeff-En:   0.000D+00 0.100D+01
 Coeff:      0.111D-01 0.989D+00
 Gap=     0.308 Goal=   None    Shift=    0.000
 Gap=     0.348 Goal=   None    Shift=    0.000
 RMSDP=1.73D-05 MaxDP=2.74D-04 DE=-6.43D-06 OVMax= 5.75D-04

 Cycle   3  Pass 1  IDiag  1:
[...]
                        XY            XZ            YZ
 --------------------------------------------------------
     1   Atom        0.000000      0.000000     -0.000000
     2   Atom        0.000000      0.000000     -0.074860
     3   Atom        0.000000     -0.000000      0.074860
 --------------------------------------------------------


 ---------------------------------------------------------------------------------
              Anisotropic Spin Dipole Couplings in Principal Axis System
 ---------------------------------------------------------------------------------

       Atom             a.u.   MegaHertz   Gauss  10(-4) cm-1        Axes

              Baa    -1.1317  -151.861   -54.188   -50.655  0.0000  1.0000 -0.0000
     1 C(13)  Bbb     0.4347    58.339    20.817    19.460  0.0000  0.0000  1.0000
              Bcc     0.6969    93.522    33.371    31.196  1.0000  0.0000  0.0000
 
              Baa    -0.0843   -44.966   -16.045   -14.999 -0.0000  0.3488  0.9372
     2 H(1)   Bbb    -0.0604   -32.240   -11.504   -10.754  1.0000  0.0000  0.0000
              Bcc     0.1447    77.206    27.549    25.753 -0.0000  0.9372 -0.3488
 
              Baa    -0.0843   -44.966   -16.045   -14.999  0.0000 -0.3488  0.9372
     3 H(1)   Bbb    -0.0604   -32.240   -11.504   -10.754  1.0000  0.0000  0.0000
              Bcc     0.1447    77.206    27.549    25.753 -0.0000  0.9372  0.3488
 

 ---------------------------------------------------------------------------------

 No NMR shielding tensors so no spin-rotation constants.
 Leave Link  601 at Tue Oct  4 21:36:16 2022, MaxMem=   536870912 cpu:               1.0 elap:               0.3
 (Enter /Users/mizu-bai/Applications/g16/l701.exe)
 ... and contract with generalized density number  0.
 Compute integral second derivatives.
 R6Disp: Adding Grimme-D3(BJ) dispersion energy 2nd derivatives to the Hessian.
   4 Symmetry operations used in ECPInt.
 ECPInt:  NShTT=     190 NPrTT=     556 LenC2=     191 LenP2D=     541.
 LDataN:  DoStor=T MaxTD1= 8 Len=  415
 Leave Link  701 at Tue Oct  4 21:36:17 2022, MaxMem=   536870912 cpu:               0.8 elap:               0.2
 (Enter /Users/mizu-bai/Applications/g16/l702.exe)
 L702 exits ... SP integral derivatives will be done elsewhere.
 Leave Link  702 at Tue Oct  4 21:36:17 2022, MaxMem=   536870912 cpu:               0.1 elap:               0.0
 (Enter /Users/mizu-bai/Applications/g16/l703.exe)
 Integral derivatives from FoFJK, PRISM(SPDF).
 Compute integral second derivatives, UseDBF=F ICtDFT=           0.
 Calling FoFJK, ICntrl=    100127 FMM=F ISym2X=1 I1Cent= 0 IOpClX= 1 NMat=1 NMatS=1 NMatT=0.
 FoFJK:  IHMeth= 1 ICntrl=  100127 DoSepK=F KAlg= 0 I1Cent=           0 FoldK=F
 IRaf=         0 NMat=       1 IRICut=       1 DoRegI=T DoRafI=F ISym2E= 1 IDoP0=0 IntGTp=1.
 FoFCou: FMM=F IPFlag=           0 FMFlag=      100000 FMFlg1=         800
         NFxFlg=           0 DoJE=F BraDBF=F KetDBF=F FulRan=T
         wScrn=  0.000000 ICntrl=    100127 IOpCl=  1 I1Cent=           0 NGrid=           0
         NMat0=    1 NMatS0=      1 NMatT0=    0 NMatD0=    1 NMtDS0=    0 NMtDT0=    0
 Petite list used in FoFCou.
 Leave Link  703 at Tue Oct  4 21:36:18 2022, MaxMem=   536870912 cpu:               4.9 elap:               1.2
 (Enter /Users/mizu-bai/Applications/g16/l716.exe)
 Dipole        =-2.41179560D-17 2.77538815D-17-2.56198941D-01
 Polarizability= 1.03848520D+01 6.26281517D-14 1.40099454D+01
                 5.70616827D-15 2.85725657D-12 1.04578276D+01
 Full mass-weighted force constant matrix:
 Low frequencies ---   -0.0008   -0.0008   -0.0003   29.7750   33.3102   36.4769
 Low frequencies --- 1058.1217 3125.2710 3362.8179
 Diagonal vibrational polarizability:
        0.0000000       0.0007485       0.2539931
 Harmonic frequencies (cm**-1), IR intensities (KM/Mole), Raman scattering
 activities (A**4/AMU), depolarization ratios for plane and unpolarized
 incident light, reduced masses (AMU), force constants (mDyne/A),
 and normal coordinates:
                      1                      2                      3
                     A1                     A1                     B2
 Frequencies --   1058.1217              3125.2710              3362.8179
 Red. masses --      1.1371                 1.0264                 1.1386
 Frc consts  --      0.7501                 5.9066                 7.5866
 IR Inten    --     10.4616                 0.9210                 0.3145
  Atom  AN      X      Y      Z        X      Y      Z        X      Y      Z
     1   6    -0.00  -0.00  -0.11     0.00   0.00   0.04    -0.00  -0.11   0.00
     2   1     0.00   0.28   0.65     0.00   0.66  -0.24    -0.00   0.65  -0.27
     3   1     0.00  -0.28   0.65    -0.00  -0.66  -0.24     0.00   0.65   0.27

 -------------------
 - Thermochemistry -
 -------------------
 Temperature   298.150 Kelvin.  Pressure   1.00000 Atm.
 Atom     1 has atomic number  6 and mass  12.00000
 Atom     2 has atomic number  1 and mass   1.00783
 Atom     3 has atomic number  1 and mass   1.00783
 Molecular mass:    14.01565 amu.
 Principal axes and moments of inertia in atomic units:
                           1         2         3
     Eigenvalues --     1.04789   7.14713   8.19502
           X           -0.00000   0.00000   1.00000
           Y            1.00000   0.00000   0.00000
           Z           -0.00000   1.00000   0.00000
 This molecule is an asymmetric top.
 Rotational symmetry number  2.
 Rotational temperatures (Kelvin)     82.65572    12.11869    10.56909
 Rotational constants (GHZ):        1722.26560   252.51254   220.22406
 Zero-point vibrational energy      45136.4 (Joules/Mol)
                                   10.78785 (Kcal/Mol)
 Vibrational temperatures:   1522.40  4496.57  4838.34
          (Kelvin)
 
 Zero-point correction=                           0.017192 (Hartree/Particle)
 Thermal correction to Energy=                    0.020053
 Thermal correction to Enthalpy=                  0.020998
 Thermal correction to Gibbs Free Energy=        -0.001160
 Sum of electronic and zero-point Energies=            -39.152823
 Sum of electronic and thermal Energies=               -39.149961
 Sum of electronic and thermal Enthalpies=             -39.149017
 Sum of electronic and thermal Free Energies=          -39.171174
 
                     E (Thermal)             CV                S
                      KCal/Mol        Cal/Mol-Kelvin    Cal/Mol-Kelvin
 Total                   12.584              6.280             46.634
 Electronic               0.000              0.000              2.183
 Translational            0.889              2.981             33.861
 Rotational               0.889              2.981             10.516
 Vibrational             10.806              0.318              0.074
                       Q            Log10(Q)             Ln(Q)
 Total Bot       0.341507D+01          0.533400          1.228198
 Total V=0       0.276025D+09          8.440949         19.436003
 Vib (Bot)       0.124477D-07         -7.904909        -18.201727
 Vib (V=0)       0.100610D+01          0.002640          0.006078
 Electronic      0.300000D+01          0.477121          1.098612
 Translational   0.206240D+07          6.314374         14.539383
 Rotational      0.443419D+02          1.646814          3.791930
 
                                                         Title Card Required
                                                             IR Spectrum
 
     3        3                                                                              1                                       
     3        1                                                                              0                                       
     6        2                                                                              5                                       
     3        5                                                                              8                                       
 
     X        X                                                                              X                                       
              X                                                                              X                                       
                                                                                             X                                       
                                                                                             X                                       
                                                                                             X                                       
                                                                                             X                                       
                                                                                             X                                       
                                                                                             X                                       
                                                                                             X                                       
                                                                                             X                                       
                                                                                             X                                       
                                                                                             X                                       
                                                                                             X                                       
                                                                                             X                                       
                                                                                             X                                       
                                                                                             X                                       
                                                                                             X                                       
                                                                                             X                                       
                                                                                             X                                       
                                                                                             X                                       
 
 ***** Axes restored to original set *****
 -------------------------------------------------------------------
 Center     Atomic                   Forces (Hartrees/Bohr)
 Number     Number              X              Y              Z
 -------------------------------------------------------------------
      1        6           0.000000000    0.000000000   -0.000067696
      2        1           0.000000000   -0.000114118    0.000033848
      3        1          -0.000000000    0.000114118    0.000033848
 -------------------------------------------------------------------
 Cartesian Forces:  Max     0.000114118 RMS     0.000060480
 Force constants in Cartesian coordinates: 
                1             2             3             4             5 
      1  0.868981D-04
      2  0.000000D+00  0.644100D+00
      3  0.000000D+00  0.000000D+00  0.150659D+00
      4 -0.434490D-04  0.000000D+00  0.000000D+00  0.428838D-04
      5  0.000000D+00 -0.322050D+00  0.105029D+00  0.000000D+00  0.324646D+00
      6  0.000000D+00  0.133275D+00 -0.753294D-01  0.000000D+00 -0.119152D+00
      7 -0.434490D-04  0.000000D+00  0.000000D+00  0.000000D+00  0.000000D+00
      8  0.000000D+00 -0.322050D+00 -0.105029D+00  0.000000D+00 -0.259579D-02
      9  0.000000D+00 -0.133275D+00 -0.753294D-01  0.000000D+00  0.141230D-01
                6             7             8             9 
      6  0.652610D-01
      7  0.000000D+00  0.428838D-04
      8 -0.141230D-01  0.000000D+00  0.324646D+00
      9  0.100683D-01  0.000000D+00  0.119152D+00  0.652610D-01
 FormGI is forming the generalized inverse of G from B-inverse, IUseBI=4.
 Force constants in internal coordinates: 
                1             2             3 
      1  0.370914D+00
      2 -0.628694D-02  0.370914D+00
      3  0.149710D-01  0.149710D-01  0.786705D-01
 Leave Link  716 at Tue Oct  4 21:36:18 2022, MaxMem=   536870912 cpu:               0.2 elap:               0.1
 (Enter /Users/mizu-bai/Applications/g16/l103.exe)

 GradGradGradGradGradGradGradGradGradGradGradGradGradGradGradGradGradGrad
 Berny optimization.
 Red2BG is reusing G-inverse.
 Internal  Forces:  Max     0.000118389 RMS     0.000097752
 Search for a local minimum.
 Step number   1 out of a maximum of    2
 All quantities printed in internal units (Hartrees-Bohrs-Radians)
 Second derivative matrix not updated -- analytic derivatives used.
 The second derivative matrix:
                          R1        R2        A1
           R1           0.37091
           R2          -0.00629   0.37091
           A1           0.01497   0.01497   0.07867
 ITU=  0
     Eigenvalues ---    0.07711   0.36619   0.37720
 Angle between quadratic step and forces=  15.49 degrees.
 Linear search not attempted -- first point.
 Iteration  1 RMS(Cart)=  0.00030395 RMS(Int)=  0.00000002
 Iteration  2 RMS(Cart)=  0.00000002 RMS(Int)=  0.00000000
 ITry= 1 IFail=0 DXMaxC= 3.70D-04 DCOld= 1.00D+10 DXMaxT= 3.00D-01 DXLimC= 3.00D+00 Rises=F
 ClnCor:  largest displacement from symmetrization is 1.05D-15 for atom     3.
 Variable       Old X    -DE/DX   Delta X   Delta X   Delta X     New X
                                 (Linear)    (Quad)   (Total)
    R1        2.03790  -0.00012   0.00000  -0.00032  -0.00032   2.03758
    R2        2.03790  -0.00012   0.00000  -0.00032  -0.00032   2.03758
    A1        2.35687  -0.00003   0.00000  -0.00020  -0.00020   2.35667
         Item               Value     Threshold  Converged?
 Maximum Force            0.000118     0.000450     YES
 RMS     Force            0.000098     0.000300     YES
 Maximum Displacement     0.000370     0.001800     YES
 RMS     Displacement     0.000304     0.001200     YES
 Predicted change in Energy=-3.998313D-08
 Optimization completed.
    -- Stationary point found.
                           ----------------------------
                           !   Optimized Parameters   !
                           ! (Angstroms and Degrees)  !
 --------------------------                            --------------------------
 ! Name  Definition              Value          Derivative Info.                !
 --------------------------------------------------------------------------------
 ! R1    R(1,2)                  1.0784         -DE/DX =   -0.0001              !
 ! R2    R(1,3)                  1.0784         -DE/DX =   -0.0001              !
 ! A1    A(2,1,3)              135.0389         -DE/DX =    0.0                 !
 --------------------------------------------------------------------------------
 GradGradGradGradGradGradGradGradGradGradGradGradGradGradGradGradGradGrad

 Leave Link  103 at Tue Oct  4 21:36:18 2022, MaxMem=   536870912 cpu:               0.0 elap:               0.0
 (Enter /Users/mizu-bai/Applications/g16/l9999.exe)

 ----------------------------------------------------------------------

 Electric dipole moment (input orientation):
 (Debye = 10**-18 statcoulomb cm , SI units = C m)
                  (au)            (Debye)         (10**-30 SI)
   Tot        0.256199D+00      0.651193D+00      0.217215D+01
   x          0.000000D+00      0.000000D+00      0.000000D+00
   y          0.000000D+00      0.000000D+00      0.000000D+00
   z         -0.256199D+00     -0.651193D+00     -0.217215D+01

 Dipole polarizability, Alpha (input orientation).
 (esu units = cm**3 , SI units = C**2 m**2 J**-1)
 Alpha(0;0):
               (au)            (10**-24 esu)      (10**-40 SI)
   iso        0.116175D+02      0.172154D+01      0.191547D+01
   aniso      0.358916D+01      0.531859D+00      0.591773D+00
   xx         0.103849D+02      0.153888D+01      0.171223D+01
   yx         0.000000D+00      0.000000D+00      0.000000D+00
   yy         0.140099D+02      0.207606D+01      0.230993D+01
   zx         0.000000D+00      0.000000D+00      0.000000D+00
   zy         0.000000D+00      0.000000D+00      0.000000D+00
   zz         0.104578D+02      0.154969D+01      0.172426D+01

 ----------------------------------------------------------------------

 Dipole orientation:
     6         -0.00000000          0.00000000         -0.09823542
     1          0.00000000         -1.88303512          0.68099488
     1         -0.00000000          1.88303512          0.68099488

 Electric dipole moment (dipole orientation):
 (Debye = 10**-18 statcoulomb cm , SI units = C m)
                  (au)            (Debye)         (10**-30 SI)
   Tot        0.256199D+00      0.651193D+00      0.217215D+01
   x          0.000000D+00      0.000000D+00      0.000000D+00
   y          0.000000D+00      0.000000D+00      0.000000D+00
   z          0.256199D+00      0.651193D+00      0.217215D+01

 Dipole polarizability, Alpha (dipole orientation).
 (esu units = cm**3 , SI units = C**2 m**2 J**-1)
 Alpha(0;0):
               (au)            (10**-24 esu)      (10**-40 SI)
   iso        0.116175D+02      0.172154D+01      0.191547D+01
   aniso      0.358916D+01      0.531859D+00      0.591773D+00
   xx         0.103849D+02      0.153888D+01      0.171223D+01
   yx         0.000000D+00      0.000000D+00      0.000000D+00
   yy         0.140099D+02      0.207606D+01      0.230993D+01
   zx         0.000000D+00      0.000000D+00      0.000000D+00
   zy         0.000000D+00      0.000000D+00      0.000000D+00
   zz         0.104578D+02      0.154969D+01      0.172426D+01

 ----------------------------------------------------------------------
 Unable to Open any file for archive entry.
 1\1\GINC-MACBOOK-PRO-15-INCH\Freq\UB3LYP\def2TZVP\C1H2(3)\ROOT\04-Oct-
 2022\0\\#P Geom=AllCheck Guess=TCheck SCRF=Check GenChk UB3LYP/def2TZV
 P Freq\\Title Card Required\\0,3\C,0.,0.,0.0519839461\H,0.,0.996459272
 8,-0.360366973\H,0.,-0.9964592728,-0.360366973\\Version=EM64M-G16RevC.
 01\State=3-B1\HF=-39.1700142\S2=2.005417\S2-1=0.\S2A=2.000007\RMSD=2.8
 88e-10\RMSF=6.048e-05\ZeroPoint=0.0171915\Thermal=0.0200535\ETot=-39.1
 499607\HTot=-39.1490166\GTot=-39.1711739\Dipole=0.,0.,-0.2561989\Dipol
 eDeriv=-0.3288004,0.,0.,0.,-0.0641025,0.,0.,0.,-0.1413617,0.1644002,0.
 ,0.,0.,0.0320513,0.0069808,0.,0.054806,0.0706809,0.1644002,0.,0.,0.,0.
 0320513,-0.0069808,0.,-0.054806,0.0706809\Polar=10.384852,0.,14.009945
 4,0.,0.,10.4578276\Quadrupole=-0.7286591,1.0822962,-0.3536371,0.,0.,0.
 \PG=C02V [C2(C1),SGV(H2)]\NImag=0\\0.00008690,0.,0.64409978,0.,0.,0.15
 065874,-0.00004345,0.,0.,0.00004288,0.,-0.32204989,0.10502946,0.,0.324
 64569,0.,0.13327537,-0.07532937,0.,-0.11915242,0.06526105,-0.00004345,
 0.,0.,0.00000057,0.,0.,0.00004288,0.,-0.32204989,-0.10502946,0.,-0.002
 59579,-0.01412296,0.,0.32464569,0.,-0.13327537,-0.07532937,0.,0.014122
 96,0.01006832,0.,0.11915242,0.06526105\\0.,0.,0.00006770,0.,0.00011412
 ,-0.00003385,0.,-0.00011412,-0.00003385\\\@
 The archive entry for this job was punched.


 MAN IS A SINGULAR CREATURE.  HE HAS A SET OF GIFTS
 WHICH MAKE HIM UNIQUE AMONG THE ANIMALS: SO THAT, 
 UNLIKE THEM, HE IS NOT A FIGURE IN THE LANDSCAPE --
 HE IS A SHAPER OF THE LANDSCAPE.

                       -- JACOB BRONOWSKI
 Job cpu time:       0 days  0 hours  0 minutes 22.9 seconds.
 Elapsed time:       0 days  0 hours  0 minutes  5.9 seconds.
 File lengths (MBytes):  RWF=      6 Int=      0 D2E=      0 Chk=      1 Scr=      1
 Normal termination of Gaussian 16 at Tue Oct  4 21:36:18 2022.
